7
Atoms. Timestep: 5000
C -0.00373624 -0.0112557 -0.0314265
N 1.48784 -0.0375073 0.0283489
O 2.10092 0.502162 0.959722
O 2.02646 -0.456827 -0.944761
H -0.318876 0.602256 -0.848501
H -0.315708 -1.02667 -0.341289
H -0.34825 0.360449 0.932803
7
Atoms. Timestep: 10000
C 0.00484966 -0.0224547 -0.0339002
N 1.4998 -0.0256164 0.0633001
O 2.10358 0.88735 0.644992
O 2.00633 -0.843175 -0.65801
H -0.20748 -0.228699 -1.08994
H -0.331927 -0.78775 0.65449
H -0.434734 0.939042 0.166135
7
Atoms. Timestep: 15000
C -0.012286 -0.0166268 -0.0201464
N 1.48829 -0.00748272 0.0491791
O 2.10956 1.11529 0.176843
O 2.02288 -1.08958 -0.195744
H -0.31016 -0.868476 -0.66429
H -0.369584 -0.150192 1.00681
H -0.287625 0.912768 -0.486084
7
Atoms. Timestep: 20000
C -0.0262712 0.0124556 -0.00118363
N 1.52333 -0.00953733 0.00528194
O 2.08267 1.05899 -0.335456
O 2.04256 -1.07001 0.347521
H -0.41319 -1.01845 -0.0779922
H -0.453371 0.660234 0.75502
H -0.306962 0.517231 -0.927787
7
Atoms. Timestep: 25000
C -0.047166 0.0673088 -0.0482029
N 1.50016 -0.0516332 -0.00961821
O 2.06857 0.765675 -0.748947
O 2.08934 -0.781768 0.803393
H -0.402063 -0.667974 0.687595
H -0.376903 1.05698 0.20809
H -0.342098 -0.217966 -1.05163
7
Atoms. Timestep: 30000
C -0.0222405 0.030184 -0.0775718
N 1.49464 -0.0486377 0.0145922
O 2.04579 0.366727 -0.962037
O 2.10188 -0.363669 1.028
H -0.29386 0.561721 0.835521
H -0.294353 0.615291 -0.971174
H -0.590649 -0.909163 -0.1897
7
Atoms. Timestep: 35000
C -0.024916 0.0277443 -0.0396449
N 1.49268 -0.0411916 0.0184219
O 2.05768 -0.108732 -1.03918
O 2.08617 0.112458 1.07472
H -0.284455 1.07895 -0.013901
H -0.245664 -0.30583 -1.05063
H -0.528832 -0.590304 0.71698
7
Atoms. Timestep: 40000
C -0.0473637 0.0496582 -0.0311034
N 1.49378 -0.0154811 -0.00830448
O 2.07586 -0.605296 -0.904443
O 2.08593 0.573638 0.935175
H -0.298493 0.863239 -0.69883
H -0.45476 -0.934726 -0.308656
H -0.338359 0.197338 1.00583
7
Atoms. Timestep: 45000
C -0.0750285 0.0899764 -0.00138975
N 1.53318 -0.0171141 -0.0434095
O 2.08658 -0.992474 -0.546973
O 2.07017 0.921556 0.584313
H -0.432759 0.057816 -1.04032
H -0.467325 -0.793656 0.541433
H -0.329606 1.027 0.526267
7
Atoms. Timestep: 50000
C -0.0806816 0.110859 -0.036387
N 1.49857 -0.0362625 -0.034466
O 2.09555 -1.13763 -0.118263
O 2.09433 1.05407 0.176424
H -0.476689 -0.888982 0.0582229
H -0.312985 0.725496 0.813566
H -0.41726 0.672649 -0.882127
7
Atoms. Timestep: 55000
C -0.0394319 0.0820823 -0.0436366
N 1.50525 -0.0477595 -0.019003
O 2.03631 -1.03753 0.373197
O 2.11154 0.989044 -0.313692
H -0.496848 -0.449501 0.823693
H -0.251562 1.1565 0.04875
H -0.375721 -0.251745 -1.03265
7
Atoms. Timestep: 60000
C -0.0163355 0.0764091 -0.0389046
N 1.48103 0.00220446 0.0156745
O 2.0102 -0.785661 0.738857
O 2.13733 0.717295 -0.717124
H -0.320417 0.590414 0.87844
H -0.415555 0.531993 -0.911799
H -0.321754 -0.978599 -0.0658223
7
Atoms. Timestep: 65000
C -0.0189031 0.0415123 0.0110236
N 1.49541 0.0596409 0.00903002
O 1.98083 -0.429367 0.98235
O 2.15512 0.335071 -1.00424
H -0.324354 1.04193 -0.271243
H -0.417641 -0.674235 -0.688184
H -0.301414 -0.194949 1.04986
7
Atoms. Timestep: 70000
C -0.016739 0.095961 0.0250671
N 1.51408 0.0430921 -0.0147937
O 2.00673 0.0269279 1.09706
O 2.1221 -0.147841 -1.11171
H -0.385429 0.288497 -0.982802
H -0.37965 -0.900623 0.331407
H -0.450501 0.788515 0.790782
7
Atoms. Timestep: 75000
C -0.0153067 0.110301 -0.0227897
N 1.50363 0.0149663 -0.0148681
O 2.066 0.516951 0.981961
O 2.05577 -0.637754 -0.957866
H -0.447358 -0.536769 -0.786242
H -0.257321 -0.234321 0.979842
H -0.270829 1.16578 -0.0977591
7
Atoms. Timestep: 80000
C 0.0230339 0.10523 -0.0262612
N 1.50582 0.00171573 0.00978171
O 2.11705 0.854884 0.645609
O 1.97362 -0.961472 -0.623975
H -0.370645 -0.83445 0.391678
H -0.354854 1.00012 0.48946
H -0.243598 0.248056 -1.04748
7
Atoms. Timestep: 85000
C 0.0381289 0.0703334 -0.0405133
N 1.48689 0.0140248 0.0430586
O 2.16622 1.02269 0.169236
O 1.91059 -1.10567 -0.166368
H -0.259982 -0.0225552 1.02429
H -0.208347 1.04826 -0.471756
H -0.197648 -0.741817 -0.71382
7
Atoms. Timestep: 90000
C 0.060168 0.0644685 -0.00903076
N 1.49233 0.0201822 0.0419397
O 2.16467 0.972042 -0.32921
O 1.89379 -1.05399 0.308184
H -0.248126 0.862869 0.668887
H -0.142929 0.292662 -1.02259
H -0.321825 -0.903741 0.212036
7
Atoms. Timestep: 95000
C 0.0569446 0.110967 -0.0256425
N 1.49857 0.0124707 0.0232687
O 2.13742 0.760017 -0.72603
O 1.92127 -0.873714 0.724803
H -0.273188 0.983448 -0.631299
H -0.296234 -0.848697 -0.4034
H -0.195588 0.173933 1.03629
7
Atoms. Timestep: 100000
C 0.0490507 0.124005 -0.0330467
N 1.49766 -0.017354 0.0249488
O 2.07579 0.364421 -1.04596
O 1.9946 -0.482009 1.05828
H -0.18949 0.249545 -1.10239
H -0.503176 -0.692956 0.432905
H -0.151168 1.07302 0.520912
7
Atoms. Timestep: 105000
C 0.0419254 0.160283 -0.0511273
N 1.52902 -0.053707 0.0421234
O 1.98852 -0.14132 -1.12389
O 2.06194 0.0319741 1.14095
H -0.272947 -0.54588 -0.808514
H -0.434747 -0.0788985 0.902352
H -0.170791 1.19662 -0.340816
7
Atoms. Timestep: 110000
C 0.0426431 0.126378 -0.0658129
N 1.48745 -0.0323807 0.0594052
O 1.94457 -0.622813 -0.947498
O 2.13964 0.514429 0.958203
H -0.432857 -0.852178 -0.00449005
H -0.212317 0.815909 0.768953
H -0.199702 0.700413 -0.975848
7
Atoms. Timestep: 115000
C 0.0422816 0.158968 -0.0201987
N 1.49253 -0.00203805 0.0335537
O 1.92895 -0.962994 -0.589361
O 2.15143 0.806146 0.587306
H -0.413167 -0.18134 0.916297
H -0.191461 1.23581 -0.207325
H -0.245902 -0.431324 -0.902066
7
Atoms. Timestep: 120000
C 0.0194172 0.200164 -0.0155737
N 1.47588 -0.0177166 -0.0087981
O 1.94503 -1.14822 -0.125543
O 2.16891 0.962182 0.152711
H -0.143271 0.852132 0.822287
H -0.250849 0.692173 -0.964668
H -0.485095 -0.73087 0.0191114
7
Atoms. Timestep: 125000
C -0.0107672 0.230469 -0.0163887
N 1.49821 -0.0457061 -0.0475268
O 1.96056 -1.12905 0.395338
O 2.16117 0.935903 -0.330236
H -0.0924442 1.31759 0.0846449
H -0.352957 -0.0395355 -1.02325
H -0.508092 -0.323961 0.761393
7
Atoms. Timestep: 130000
C -0.0245315 0.242691 -0.0551195
N 1.51331 -0.0625824 -0.0207318
O 1.99217 -0.863676 0.85075
O 2.13747 0.682643 -0.782548
H -0.241631 1.15996 -0.664596
H -0.588772 -0.584169 -0.466025
H -0.294473 0.275094 0.993254
7
Atoms. Timestep: 135000
C -0.0218453 0.204481 -0.0157543
N 1.4985 -0.0409408 -0.00409258
O 2.02253 -0.395506 1.07167
O 2.10951 0.218394 -1.05023
H -0.222317 0.584876 -1.01905
H -0.607363 -0.658387 0.235818
H -0.15946 1.01663 0.687605
7
Atoms. Timestep: 140000
C -0.0108408 0.240333 0.0243889
N 1.50086 -0.0200699 -0.0106365
O 2.0586 0.065273 1.04155
O 2.07285 -0.280782 -1.05885
H -0.470593 -0.494339 -0.620856
H -0.446013 0.0316233 0.981408
H -0.227085 1.29787 -0.228737
7
Atoms. Timestep: 145000
C -0.00818553 0.270262 0.0207044
N 1.48471 0.00320828 -0.037256
O 2.12391 0.446372 0.872396
O 2.01336 -0.715831 -0.869482
H -0.454507 -0.541485 0.598774
H -0.107414 1.19552 0.617648
H -0.481347 0.357072 -0.991536
7
Atoms. Timestep: 150000
C -0.0221138 0.299897 0.00980761
N 1.50675 0.00260195 -0.0425431
O 2.19064 0.782828 0.537582
O 1.93944 -1.08473 -0.514196
H -0.338131 0.203724 1.01938
H -0.227458 1.34596 -0.218452
H -0.504048 -0.368389 -0.697576
7
Atoms. Timestep: 155000
C -0.035605 0.274865 -0.0156669
N 1.51077 -0.00675832 -0.0148464
O 2.26409 0.956204 0.0874579
O 1.87014 -1.2249 -0.0642801
H -0.187285 1.12588 0.674915
H -0.293011 0.563567 -1.06054
H -0.550221 -0.606832 0.410852
7
Atoms. Timestep: 160000
C -0.0378612 0.24557 0.0107281
N 1.51385 0.00948404 -0.00771876
O 2.2962 0.879883 -0.391879
O 1.8399 -1.12918 0.396299
H -0.187684 1.17469 -0.545488
H -0.502575 -0.55849 -0.577567
H -0.385823 0.281877 1.03239
7
Atoms. Timestep: 165000
C -0.0139376 0.250308 0.0242938
N 1.50859 0.0438314 -0.0035605
O 2.24733 0.567306 -0.7879
O 1.8779 -0.852624 0.766691
H -0.482806 0.399397 -0.96445
H -0.392593 -0.638017 0.509965
H -0.240179 1.17451 0.551063
7
Atoms. Timestep: 170000
C -0.00862327 0.277246 0.0463645
N 1.49409 0.045523 -0.0136189
O 2.15721 0.140363 -1.02008
O 1.96991 -0.452935 0.986767
H -0.541719 -0.518843 -0.52582
H -0.302573 0.291102 1.10011
H -0.163019 1.25164 -0.408869
7
Atoms. Timestep: 175000
C -3.60959e-05 0.333209 0.0264845
N 1.50657 -0.0223848 -0.00486793
O 2.03733 -0.270984 -1.07974
O 2.0764 -0.0217081 1.0645
H -0.48827 -0.347147 0.672594
H -0.196295 1.37563 0.23513
H -0.386065 -0.042982 -0.913727
7
Atoms. Timestep: 180000
C -0.0131539 0.320084 -0.0370555
N 1.49412 -0.0343499 0.0318147
O 1.89303 -0.744727 -0.918285
O 2.23656 0.464374 0.922438
H -0.268689 0.311653 1.03651
H -0.1673 1.29781 -0.53925
H -0.557137 -0.497085 -0.563828
7
Atoms. Timestep: 185000
C -0.018347 0.290438 -0.0170081
N 1.51627 -0.0160288 0.0429114
O 1.79238 -1.07594 -0.529868
O 2.32755 0.804109 0.513789
H -0.281672 0.928948 0.785009
H -0.161139 0.714431 -1.02147
H -0.642714 -0.567671 0.0978289
7
Atoms. Timestep: 190000
C 0.00276041 0.316162 0.0104697
N 1.49247 0.0122524 0.0446067
O 1.78176 -1.1836 -0.0366504
O 2.33762 0.876575 -0.0036846
H -0.167923 1.3714 0.168788
H -0.303929 -0.0641458 -0.979862
H -0.525676 -0.372548 0.70639
7
Atoms. Timestep: 195000
C 0.0241155 0.329113 0.00625127
N 1.4915 0.00983991 0.0165388
O 1.81979 -1.08978 0.45564
O 2.27879 0.754596 -0.479338
H -0.0451776 1.28668 -0.543233
H -0.553785 -0.503823 -0.429833
H -0.309499 0.477819 1.04474
7
Atoms. Timestep: 200000
C 0.0436569 0.365796 -0.018249
N 1.49038 -0.0423092 -0.00269534
O 1.91468 -0.793495 0.877855
O 2.16945 0.470827 -0.860145
H -0.132137 0.622476 -1.03362
H -0.675714 -0.394935 0.286979
H -0.0887356 1.12228 0.720519
7
Atoms. Timestep: 205000
C 0.0290454 0.386878 -0.0496998
N 1.47914 -0.0703056 0.009941
O 2.05481 -0.363448 1.12552
O 2.04584 0.0445768 -1.08363
H -0.470913 -0.146879 -0.890719
H -0.442633 0.0899284 0.890188
H 0.0850597 1.48445 -0.210083
7
Atoms. Timestep: 210000
C 0.0307977 0.372159 -0.035767
N 1.50971 -0.0694759 0.0327824
O 2.16131 0.149663 1.06848
O 1.91592 -0.458206 -1.06131
H -0.5937 -0.516153 -0.197302
H -0.281957 0.859133 0.884837
H -0.026778 1.08447 -0.830905
7
Atoms. Timestep: 215000
C 0.0450178 0.405355 -0.0187089
N 1.47517 -0.0474991 0.0342303
O 2.25232 0.55609 0.763807
O 1.83363 -0.900161 -0.779991
H -0.488151 -0.37505 0.519987
H -0.0275017 1.30885 0.567945
H -0.214566 0.356441 -1.08398
7
Atoms. Timestep: 220000
C 0.0776681 0.415381 -0.0170145
N 1.48159 -0.0359127 0.00445676
O 2.29047 0.792312 0.316888
O 1.76362 -1.17372 -0.31466
H -0.34072 0.121703 0.986388
H 0.17482 1.49258 -0.0374398
H -0.536949 -0.0120123 -0.843524
7
Atoms. Timestep: 225000
C 0.0825695 0.443014 -0.0131509
N 1.48541 -0.0552206 -0.0478264
O 2.29536 0.835458 -0.177034
O 1.74918 -1.2289 0.228321
H -0.235157 0.756379 0.971942
H 0.178428 1.29759 -0.650536
H -0.606125 -0.321705 -0.313813
7
Atoms. Timestep: 230000
C 0.0831734 0.46809 -0.0461663
N 1.48466 -0.0714717 -0.0440015
O 2.2682 0.646213 -0.670733
O 1.78156 -1.03377 0.745664
H -0.0161467 1.17529 0.780348
H -0.159051 0.77816 -1.06265
H -0.567207 -0.387432 0.254919
7
Atoms. Timestep: 235000
C 0.0691134 0.425649 -0.0388676
N 1.51679 -0.0628258 -0.0243598
O 2.16696 0.210047 -1.00884
O 1.86533 -0.580415 1.05741
H 0.1333 1.43153 0.350307
H -0.384802 0.373522 -1.02913
H -0.492834 -0.126312 0.709739
7
Atoms. Timestep: 240000
C 0.0882172 0.449616 0.0112367
N 1.47233 -0.0344873 -0.0252912
O 2.03763 -0.350182 -1.08192
O 2.00477 -0.0577502 1.0898
H 0.249344 1.51909 0.0160233
H -0.359353 -0.0579117 -0.855063
H -0.404393 0.134217 0.931563
7
Atoms. Timestep: 245000
C 0.128355 0.491525 0.00404639
N 1.50097 -0.0225338 -0.0390044
O 1.84313 -0.855706 -0.840176
O 2.14573 0.395199 0.865733
H 0.130586 1.56014 -0.291542
H -0.462965 -0.146378 -0.645592
H -0.208665 0.35042 1.02549
7
Atoms. Timestep: 250000
C 0.130553 0.500199 -0.0463197
N 1.48904 -0.0167393 -0.0559185
O 1.67572 -1.19413 -0.367315
O 2.31598 0.718303 0.453304
H 0.273123 1.54298 -0.361152
H -0.522841 -0.123594 -0.640128
H -0.196774 0.404047 0.965895
7
Atoms. Timestep: 255000
C 0.116268 0.492071 -0.0491366
N 1.50361 -0.0288842 -0.0492878
O 1.57545 -1.25102 0.244156
O 2.42604 0.792801 -0.150527
H 0.166548 1.59988 -0.183083
H -0.386331 0.0498314 -0.908899
H -0.414306 0.159977 0.876761
7
Atoms. Timestep: 260000
C 0.120506 0.494514 -0.0546362
N 1.51521 -0.0273131 -0.0187485
O 1.59995 -0.979302 0.774478
O 2.38839 0.522887 -0.706484
H 0.111432 1.59743 -0.121727
H -0.416224 0.0875866 -0.865866
H -0.332497 0.0450442 0.820207
7
Atoms. Timestep: 265000
C 0.134865 0.495849 -0.0459625
N 1.49822 0.0134578 -0.00925313
O 1.76571 -0.517925 1.07379
O 2.20911 0.0140628 -1.02518
H 0.235535 1.58507 -0.0419295
H -0.327814 0.176217 -0.973883
H -0.265481 0.139099 0.920683
7
Atoms. Timestep: 270000
C 0.16053 0.536761 -0.062199
N 1.52543 0.0181958 -0.0174721
O 2.01291 0.0115623 1.07214
O 1.92026 -0.556049 -0.991842
H 0.236002 1.60254 0.148787
H -0.134041 0.44822 -1.09216
H -0.482705 -0.0590424 0.653186
7
Atoms. Timestep: 275000
C 0.16869 0.567295 -0.113034
N 1.49626 0.00942386 -0.0108537
O 2.28382 0.452746 0.81487
O 1.66349 -1.01123 -0.700349
H 0.129784 1.57586 0.21205
H -0.0327617 0.414769 -1.14175
H -0.393928 -0.0187195 0.610089
7
Atoms. Timestep: 280000
C 0.164088 0.570205 -0.132682
N 1.52341 -0.029694 0.0132165
O 2.47985 0.6989 0.294801
O 1.46404 -1.23028 -0.178996
H 0.140423 1.58157 0.275578
H -0.194523 0.547869 -1.1991
H -0.511101 -0.0786246 0.483097
7
Atoms. Timestep: 285000
C 0.171979 0.592862 -0.127625
N 1.49692 -0.0247549 0.0273263
O 2.51891 0.625747 -0.340807
O 1.4284 -1.17837 0.44087
H 0.115948 1.37026 0.594607
H 0.12325 0.833711 -1.19944
H -0.58445 -0.154661 0.157844
7
Atoms. Timestep: 290000
C 0.210027 0.626009 -0.136496
N 1.50527 -0.00721522 0.0501791
O 2.34257 0.2583 -0.806841
O 1.56177 -0.858745 0.905124
H 0.14698 1.48426 0.533647
H 0.124796 0.862925 -1.19824
H -0.504617 -0.177711 0.0339056
7
Atoms. Timestep: 295000
C 0.226349 0.642288 -0.187799
N 1.50627 -0.00167645 0.0489859
O 2.06315 -0.244215 -0.99494
O 1.82389 -0.384402 1.13825
H 0.149949 1.38889 0.628611
H 0.215047 1.09108 -1.21866
H -0.531662 -0.134401 -0.127249
7
Atoms. Timestep: 300000
C 0.19923 0.649245 -0.188745
N 1.49154 -0.0185395 0.0312148
O 1.75628 -0.779665 -0.893198
O 2.15263 0.15556 1.05415
H -0.0385588 1.01017 0.782794
H 0.454389 1.48453 -0.802478
H -0.401619 -0.0692307 -0.719357
7
Atoms. Timestep: 305000
C 0.238884 0.689542 -0.162975
N 1.49512 -0.0623034 0.0336996
O 1.47979 -1.17047 -0.476339
O 2.41277 0.541683 0.610945
H -0.440312 0.683022 0.719626
H 0.470025 1.73973 -0.377158
H -0.278266 0.205123 -1.00499
7
Atoms. Timestep: 310000
C 0.265537 0.743503 -0.179463
N 1.47369 -0.0601043 0.0646388
O 1.35129 -1.29533 0.161235
O 2.5223 0.623541 -0.0372911
H -0.54534 0.229595 0.330863
H 0.405775 1.76981 0.22896
H 0.172132 0.637279 -1.28674
7
Atoms. Timestep: 315000
C 0.290449 0.749261 -0.206471
N 1.48397 -0.0403859 0.0747518
O 1.43109 -1.03519 0.76615
O 2.41249 0.337494 -0.618062
H -0.497213 0.0549404 -0.398155
H 0.186637 1.41766 0.62943
H 0.379821 1.23262 -1.16007
7
Atoms. Timestep: 320000
C 0.287182 0.739917 -0.215931
N 1.47124 -0.0397438 0.0419881
O 1.66724 -0.557709 1.1068
O 2.18607 -0.13714 -0.933273
H -0.409892 0.0728675 -0.748311
H -0.0631915 1.08906 0.811129
H 0.603795 1.60048 -0.827176
7
Atoms. Timestep: 325000
C 0.288875 0.765685 -0.180763
N 1.45594 -0.0746593 0.0223278
O 1.98867 -0.00750885 1.12281
O 1.8724 -0.683548 -0.963337
H -0.0884949 0.403339 -1.11922
H -0.309886 0.681957 0.721457
H 0.598418 1.79522 -0.289352
7
Atoms. Timestep: 330000
C 0.330564 0.81525 -0.170043
N 1.46463 -0.105058 0.0327904
O 2.30426 0.426089 0.786314
O 1.52522 -1.1379 -0.64627
H 0.063964 0.787423 -1.25584
H -0.534244 0.467446 0.386846
H 0.554146 1.78695 0.217034
7
Atoms. Timestep: 335000
C 0.342823 0.829831 -0.208887
N 1.45248 -0.0831616 0.0544048
O 2.52167 0.575279 0.189499
O 1.29467 -1.31879 -0.033914
H 0.56265 1.26023 -1.21675
H -0.628482 0.282148 -0.164734
H 0.380867 1.52442 0.645319
7
Atoms. Timestep: 340000
C 0.334382 0.803416 -0.20976
N 1.46885 -0.0654183 0.036679
O 2.52282 0.374678 -0.394032
O 1.2877 -1.11662 0.577177
H 0.633146 1.46257 -0.995927
H -0.49167 0.290472 -0.620005
H 0.139035 1.3569 0.699218
7
Atoms. Timestep: 345000
C 0.314918 0.818726 -0.182865
N 1.44809 -0.0657287 -0.00941567
O 2.36767 -0.0402799 -0.823138
O 1.47304 -0.699734 1.01769
H 0.750154 1.75914 -0.605349
H -0.244969 0.310294 -0.980204
H -0.183236 0.831831 0.807982
7
Atoms. Timestep: 350000
C 0.333796 0.840208 -0.176462
N 1.45059 -0.111201 -0.00667581
O 2.05053 -0.541305 -0.980946
O 1.77631 -0.19337 1.15522
H 0.684413 1.86268 -0.139951
H -0.145187 0.638223 -1.15051
H -0.256841 0.691711 0.720377
7
Atoms. Timestep: 355000
C 0.344896 0.860093 -0.200623
N 1.45504 -0.105847 0.0198291
O 1.64994 -1.00429 -0.819519
O 2.15562 0.243522 0.99432
H 0.8021 1.80053 0.0555727
H 0.0644794 0.867168 -1.24508
H -0.44064 0.627615 0.530512
7
Atoms. Timestep: 360000
C 0.361105 0.87017 -0.230425
N 1.4577 -0.0733199 0.0236594
O 1.31517 -1.25315 -0.325338
O 2.48255 0.457559 0.528188
H 0.569464 1.84625 0.276733
H 0.29547 0.909165 -1.33442
H -0.544671 0.52036 0.255451
7
Atoms. Timestep: 365000
C 0.336196 0.85738 -0.242284
N 1.49454 -0.0650091 0.0170219
O 1.18086 -1.19436 0.258088
O 2.61305 0.410909 -0.0401915
H 0.518772 1.79135 0.255808
H 0.138806 0.960153 -1.32875
H -0.492149 0.368553 0.265505
7
Atoms. Timestep: 370000
C 0.319634 0.841239 -0.209907
N 1.45647 -0.0526187 -0.0351348
O 1.26485 -0.916347 0.781858
O 2.56771 0.140342 -0.555357
H 0.602742 1.64167 0.478759
H 0.265026 1.01501 -1.25684
H -0.589191 0.365255 0.173276
7
Atoms. Timestep: 375000
C 0.335318 0.863773 -0.184064
N 1.47085 -0.109341 -0.020036
O 1.52939 -0.484621 1.11825
O 2.27823 -0.276264 -0.911356
H 0.30846 1.5902 0.651072
H 0.587058 1.39759 -1.12592
H -0.607895 0.31412 -0.336614
7
Atoms. Timestep: 380000
C 0.356593 0.88191 -0.240487
N 1.44924 -0.0914207 0.0114727
O 1.93387 -0.0461864 1.19029
O 1.87145 -0.736425 -0.960379
H 0.237959 1.40128 0.67516
H 0.651565 1.47675 -1.07097
H -0.518606 0.303446 -0.546583
7
Atoms. Timestep: 385000
C 0.324273 0.847659 -0.286541
N 1.48407 -0.0612376 0.0312976
O 2.35241 0.303299 0.878963
O 1.45516 -1.09239 -0.627736
H -0.0527749 1.20798 0.698962
H 0.727877 1.73603 -0.815642
H -0.438748 0.328923 -0.890748
7
Atoms. Timestep: 390000
C 0.317875 0.837958 -0.252137
N 1.50489 -0.0402944 -0.00446983
O 2.59198 0.415785 0.349855
O 1.21252 -1.20892 -0.0943824
H -0.116673 1.13254 0.686864
H 0.563364 1.76856 -0.793604
H -0.374942 0.260516 -0.880843
7
Atoms. Timestep: 395000
C 0.325324 0.865987 -0.266043
N 1.47201 -0.0478256 -0.0416098
O 2.62184 0.312861 -0.204823
O 1.19398 -1.11538 0.48475
H 0.0322583 1.08277 0.755765
H 0.643292 1.77605 -0.724901
H -0.41511 0.222387 -0.724618
7
Atoms. Timestep: 400000
C 0.344161 0.865708 -0.275371
N 1.47081 -0.0953001 -0.00737064
O 2.44518 0.0275766 -0.706642
O 1.35624 -0.807779 0.976755
H -0.17475 1.04952 0.686931
H 0.808192 1.84128 -0.561279
H -0.352357 0.499429 -1.02841
7
Atoms. Timestep: 405000
C 0.327734 0.870959 -0.304536
N 1.45783 -0.069532 0.033232
O 2.13386 -0.403975 -0.966254
O 1.68581 -0.381783 1.23763
H -0.317453 1.03605 0.528224
H 0.900785 1.71244 -0.624004
H -0.215634 0.309169 -1.04384
7
Atoms. Timestep: 410000
C 0.316049 0.840915 -0.308437
N 1.49492 -0.0517794 0.0346907
O 1.75571 -0.827656 -0.862674
O 2.06404 0.0528417 1.14346
H -0.281302 1.07236 0.590679
H 0.596342 1.6907 -0.921792
H -0.325036 0.232171 -0.931599
7
Atoms. Timestep: 415000
C 0.292775 0.824794 -0.299164
N 1.50586 -0.0319833 -0.00813921
O 1.46086 -1.13793 -0.48805
O 2.36376 0.356388 0.78441
H -0.0123621 1.24669 0.66357
H 0.603324 1.58959 -1.04694
H -0.552793 0.182707 -0.641712
7
Atoms. Timestep: 420000
C 0.319313 0.857319 -0.258816
N 1.46968 -0.0482638 -0.0463812
O 1.30097 -1.26124 0.02912
O 2.52192 0.4702 0.267257
H 0.273537 1.47313 0.627478
H 0.517264 1.33045 -1.17611
H -0.538724 0.204793 -0.425941
7
Atoms. Timestep: 425000
C 0.342745 0.8639 -0.310465
N 1.48066 -0.0936292 0.00763756
O 1.26835 -1.1638 0.575458
O 2.53301 0.395357 -0.278277
H 0.397168 1.72001 0.387333
H 0.359908 1.16889 -1.38037
H -0.595041 0.313075 -0.129706
7
Atoms. Timestep: 430000
C 0.295825 0.823675 -0.332167
N 1.46044 -0.0503112 0.0418261
O 1.41671 -0.840213 1.03754
O 2.4318 0.0813491 -0.737899
H 0.585811 1.74276 0.100517
H 0.298667 0.888702 -1.4239
H -0.63062 0.295675 -0.055022
7
Atoms. Timestep: 435000
C 0.247128 0.758312 -0.317902
N 1.51661 -0.0306393 0.0383772
O 1.67106 -0.332625 1.21684
O 2.18697 -0.392119 -0.926462
H 0.393192 1.81958 -0.110394
H 0.165921 0.693139 -1.40731
H -0.656675 0.378359 0.164308
7
Atoms. Timestep: 440000
C 0.249171 0.752048 -0.28683
N 1.5082 -0.0202537 -0.0140653
O 1.9703 0.137243 1.10845
O 1.89455 -0.852852 -0.809382
H 0.46069 1.81753 -0.293698
H -0.123115 0.470106 -1.29368
H -0.450883 0.38877 0.454709
7
Atoms. Timestep: 445000
C 0.249942 0.735009 -0.286151
N 1.4813 -0.0458887 -0.0286868
O 2.23924 0.493078 0.757026
O 1.63974 -1.18249 -0.455494
H 0.508696 1.73907 -0.501726
H -0.253363 0.331133 -1.148
H -0.228047 0.749835 0.673119
7
Atoms. Timestep: 450000
C 0.248633 0.723811 -0.303143
N 1.49182 -0.0721638 -7.41827e-05
O 2.43617 0.649338 0.262526
O 1.44354 -1.30599 0.0362453
H 0.542929 1.59774 -0.94102
H -0.482909 0.057399 -0.813185
H -0.174937 1.14362 0.626167
7
Atoms. Timestep: 455000
C 0.210966 0.679832 -0.336719
N 1.46727 -0.0304167 0.0343749
O 2.54894 0.545327 -0.274199
O 1.37963 -1.18667 0.57651
H 0.392308 1.19006 -1.25561
H -0.529642 -0.100809 -0.406171
H 0.0370403 1.41037 0.398826
7
Atoms. Timestep: 460000
C 0.194351 0.620775 -0.326923
N 1.5241 -0.0196949 0.0451127
O 2.47621 0.1874 -0.689791
O 1.43568 -0.784923 0.976267
H 0.216893 0.730585 -1.43612
H -0.674765 0.00436881 0.0223481
H 0.0304925 1.62397 0.136126
7
Atoms. Timestep: 465000
C 0.175172 0.591435 -0.303906
N 1.48957 0.0182212 -0.00664181
O 2.31714 -0.284101 -0.8695
O 1.62913 -0.303938 1.18109
H 0.0360742 0.251071 -1.32744
H -0.480244 0.119287 0.403145
H 0.17952 1.66065 -0.306816
7
Atoms. Timestep: 470000
C 0.170349 0.561524 -0.345785
N 1.51094 -0.0260126 -0.00572301
O 2.0764 -0.728429 -0.795161
O 1.85814 0.197185 1.12606
H -0.291558 -0.142013 -1.03202
H -0.275648 0.639934 0.645187
H 0.249017 1.60304 -0.664426
7
Atoms. Timestep: 475000
C 0.152249 0.50636 -0.351973
N 1.49011 -0.0300491 0.0132801
O 1.82618 -1.10015 -0.52472
O 2.14475 0.617585 0.859747
H -0.560767 -0.274184 -0.667833
H -0.204398 1.06899 0.51065
H 0.374878 1.24708 -1.14998
7
Atoms. Timestep: 480000
C 0.12231 0.494303 -0.358562
N 1.48931 -0.0160776 0.0458353
O 1.61359 -1.26894 -0.0500464
O 2.3804 0.799743 0.371623
H -0.536709 -0.358989 -0.202658
H -0.171478 1.43261 0.137901
H 0.319824 0.70558 -1.40294
7
Atoms. Timestep: 485000
C 0.141739 0.470299 -0.379692
N 1.50448 0.00642592 0.0726934
O 1.50352 -1.15879 0.469166
O 2.48534 0.694964 -0.16119
H -0.544478 -0.0311347 0.252221
H -0.147619 1.50788 -0.20213
H -0.0572481 0.190453 -1.42352
7
Atoms. Timestep: 490000
C 0.123523 0.429563 -0.397213
N 1.4814 0.0409623 0.0473792
O 1.51999 -0.813102 0.919347
O 2.48325 0.355083 -0.576056
H -0.513515 0.197426 0.465703
H 0.178461 1.50754 -0.523961
H -0.104709 -0.124524 -1.31496
7
Atoms. Timestep: 495000
C 0.133417 0.40432 -0.429725
N 1.49011 0.000891733 0.0295996
O 1.6346 -0.294571 1.1924
O 2.36028 -0.111885 -0.797144
H -0.622072 0.347056 0.340214
H 0.190735 1.48631 -0.63283
H -0.114629 -0.213442 -1.27063
7
Atoms. Timestep: 500000
C 0.100869 0.3715 -0.471224
N 1.49413 -0.0337888 0.0446045
O 1.84596 0.299678 1.20506
O 2.1694 -0.631259 -0.775601
H -0.675606 0.10985 0.269388
H 0.184515 1.42669 -0.708573
H -0.0478335 -0.231682 -1.38102
7
Atoms. Timestep: 505000
C 0.0628176 0.334306 -0.476574
N 1.47329 -0.0289339 0.0617208
O 2.10878 0.764066 0.863353
O 1.9616 -1.06623 -0.447789
H -0.721494 0.0620826 0.215327
H 0.0940846 1.3959 -0.629122
H -0.0418063 -0.244212 -1.36002
7
Atoms. Timestep: 510000
C 0.0830976 0.331207 -0.450359
N 1.50046 -0.0232566 0.0827041
O 2.27269 0.90679 0.298649
O 1.76622 -1.20361 0.0871502
H -0.703561 -0.00832409 0.224024
H 0.000140138 1.38748 -0.772532
H -0.0854222 -0.292212 -1.35697
7
Atoms. Timestep: 515000
C 0.0929385 0.347414 -0.49865
N 1.46383 -0.00660728 0.0635621
O 2.38909 0.725716 -0.222773
O 1.66156 -1.04877 0.652724
H -0.583526 -0.0438883 0.270931
H 0.0584122 1.41454 -0.663837
H -0.0583539 -0.291877 -1.37177
7
Atoms. Timestep: 520000
C 0.109466 0.280893 -0.54389
N 1.47651 -0.0165883 0.0488616
O 2.4091 0.35211 -0.604293
O 1.61586 -0.623343 1.09966
H -0.615401 -0.0757989 0.163812
H 0.1101 1.37175 -0.690076
H -0.0435217 -0.108212 -1.53316
7
Atoms. Timestep: 525000
C 0.0819475 0.230731 -0.542723
N 1.49367 -0.039557 0.0541209
O 2.38721 -0.158163 -0.78644
O 1.6472 -0.0450383 1.28252
H -0.7568 -0.0279012 0.147423
H 0.107401 1.32517 -0.747538
H 0.0399197 -0.272152 -1.55751
7
Atoms. Timestep: 530000
C 0.0603458 0.20976 -0.536536
N 1.47458 -0.054249 0.0632821
O 2.287 -0.687988 -0.6563
O 1.7808 0.52468 1.13753
H -0.698477 0.0794133 0.244643
H 0.0144102 1.21 -0.977515
H 0.0674322 -0.443268 -1.3902
7
Atoms. Timestep: 535000
C 0.089966 0.207176 -0.53653
N 1.48428 -0.0423572 0.0756894
O 2.09121 -1.05676 -0.238701
O 1.95866 0.888638 0.696091
H -0.654353 0.0384787 0.178357
H -0.0991816 1.25013 -0.771554
H -0.066162 -0.500632 -1.32411
7
Atoms. Timestep: 540000
C 0.101606 0.20493 -0.556165
N 1.45157 -0.0287342 0.0516331
O 1.8866 -1.13345 0.338468
O 2.16736 0.95513 0.160404
H -0.635935 -0.264221 0.141965
H -0.00299773 1.30529 -0.558655
H 0.0701513 -0.253857 -1.59055
7
Atoms. Timestep: 545000
C 0.100847 0.169256 -0.587236
N 1.49732 -0.0423717 0.0363024
O 1.69028 -0.902274 0.868528
O 2.33142 0.768652 -0.322104
H -0.692685 -0.357168 -0.045703
H -0.0588736 1.26303 -0.55077
H 0.0678812 -0.213251 -1.58203
7
Atoms. Timestep: 550000
C 0.0721047 0.110798 -0.60519
N 1.49828 -0.0397698 0.0252131
O 1.57217 -0.403366 1.24268
O 2.46749 0.317376 -0.669756
H -0.578816 -0.581212 -0.16289
H -0.192517 1.16907 -0.396083
H 0.13166 0.00925871 -1.67195
7
Atoms. Timestep: 555000
C 0.0649732 0.0790926 -0.581936
N 1.49551 -0.0429417 0.0348866
O 1.57872 0.23513 1.25603
O 2.47247 -0.281023 -0.70693
H -0.564286 -0.815776 -0.397473
H -0.295665 1.02435 -0.167379
H 0.160774 0.174136 -1.69953
7
Atoms. Timestep: 560000
C 0.08346 0.0687181 -0.566253
N 1.49213 -0.0352669 0.0446245
O 1.70763 0.726569 0.946608
O 2.33246 -0.77521 -0.424848
H -0.49404 -0.85253 -0.338249
H -0.417303 0.966006 -0.217916
H 0.215236 0.32977 -1.59665
7
Atoms. Timestep: 565000
C 0.0972052 0.0722078 -0.581252
N 1.46552 -0.01579 0.0149509
O 1.92638 1.00346 0.48131
O 2.12326 -1.06173 0.0791062
H -0.218801 -0.934623 -0.679026
H -0.593849 0.663305 0.0544021
H 0.170899 0.55498 -1.55045
7
Atoms. Timestep: 570000
C 0.0844178 0.0254216 -0.6227
N 1.52557 -0.0155767 0.0192249
O 2.16602 1.01381 -0.0495945
O 1.85034 -1.02504 0.634708
H -0.177149 -0.997351 -0.864847
H -0.632227 0.262782 0.152615
H 0.0133018 0.826324 -1.42031
7
Atoms. Timestep: 575000
C 0.0651775 -0.0308469 -0.62551
N 1.50564 -0.0175504 0.0104966
O 2.42245 0.697851 -0.496837
O 1.6215 -0.655271 1.0934
H -0.123843 -0.953367 -1.22053
H -0.581486 -0.0201265 0.25732
H -0.0221041 0.909282 -1.19627
7
Atoms. Timestep: 580000
C 0.0744134 -0.0493803 -0.599516
N 1.51674 -0.0173742 0.0268835
O 2.52488 0.108667 -0.68732
O 1.50246 -0.0459392 1.24841
H 0.0139889 -0.654931 -1.44977
H -0.6294 -0.512427 0.111226
H -0.112743 1.00182 -0.795484
7
Atoms. Timestep: 585000
C 0.107842 -0.0617449 -0.596069
N 1.48173 -0.00172047 0.0243322
O 2.46567 -0.46364 -0.533322
O 1.55897 0.52113 1.10637
H 0.205654 -0.519598 -1.58573
H -0.556718 -0.649315 0.068076
H -0.246045 1.01625 -0.811728
7
Atoms. Timestep: 590000
C 0.119534 -0.0974052 -0.624322
N 1.49667 0.0207678 0.0106855
O 2.27001 -0.890492 -0.133184
O 1.72543 0.97082 0.742327
H 0.247016 -0.18444 -1.72087
H -0.283483 -1.03746 -0.237781
H -0.444214 0.819145 -0.41719
7
Atoms. Timestep: 595000
C 0.11773 -0.144267 -0.632708
N 1.52279 0.0254862 0.00161224
O 2.0172 -1.04176 0.38458
O 1.97526 1.16057 0.232764
H 0.171192 0.00800854 -1.67941
H -0.328848 -1.10169 -0.292447
H -0.617227 0.57318 -0.308085
7
Atoms. Timestep: 600000
C 0.100474 -0.146793 -0.648057
N 1.51321 0.00238864 0.005004
O 1.74529 -0.831326 0.910089
O 2.24995 0.977368 -0.289516
H 0.224383 0.224151 -1.66135
H -0.130616 -1.21279 -0.608619
H -0.573935 0.387032 0.0745349
7
Atoms. Timestep: 605000
C 0.150168 -0.153073 -0.64729
N 1.4967 0.0049868 0.0271908
O 1.55464 -0.333009 1.20625
O 2.42441 0.481135 -0.595013
H 0.125943 0.450295 -1.5901
H -0.0861031 -1.22493 -0.836942
H -0.625789 0.178679 0.0621942
7
Atoms. Timestep: 610000
C 0.156469 -0.178522 -0.68118
N 1.47688 0.0392965 0.0307259
O 1.49684 0.241306 1.23732
O 2.47395 -0.0959138 -0.594979
H 0.225683 0.382309 -1.5667
H 0.0780829 -1.22431 -0.998273
H -0.55834 0.115776 0.0612261
7
Atoms. Timestep: 615000
C 0.169263 -0.23603 -0.681726
N 1.48598 0.0613698 0.0156429
O 1.54272 0.808055 1.01228
O 2.42068 -0.630835 -0.353337
H -0.00258956 0.580631 -1.41875
H 0.260296 -1.19425 -1.23248
H -0.673777 -0.239252 0.100184
7
Atoms. Timestep: 620000
C 0.144726 -0.252706 -0.654387
N 1.52833 0.0450711 0.0170074
O 1.71239 1.17327 0.519891
O 2.23954 -0.963559 0.116081
H -0.283408 0.599984 -1.16851
H 0.340016 -0.956116 -1.43725
H -0.586974 -0.587058 0.0745478
7
Atoms. Timestep: 625000
C 0.155165 -0.230051 -0.653055
N 1.48748 0.00632658 0.0104704
O 1.98825 1.17353 -0.0659709
O 1.97774 -0.946646 0.695821
H -0.416363 0.665841 -0.666191
H 0.430961 -0.609181 -1.64152
H -0.324721 -1.00376 -0.0513737
7
Atoms. Timestep: 630000
C 0.210984 -0.230699 -0.678266
N 1.48612 0.0185781 0.0556685
O 2.22948 0.776219 -0.504905
O 1.6941 -0.563286 1.1149
H -0.553758 0.419073 -0.272948
H 0.425554 -0.0687407 -1.75499
H -0.155022 -1.23867 -0.343837
7
Atoms. Timestep: 635000
C 0.248814 -0.274122 -0.679047
N 1.44783 0.0466191 0.0448052
O 2.41319 0.206513 -0.643639
O 1.50012 0.0282029 1.27527
H -0.588835 -0.108662 -0.00697632
H 0.254213 0.316144 -1.58761
H 0.295681 -1.31383 -0.960251
7
Atoms. Timestep: 640000
C 0.236322 -0.320621 -0.652729
N 1.47523 0.0605028 0.0247932
O 2.49231 -0.374425 -0.489002
O 1.40592 0.64719 1.11223
H -0.426539 -0.745462 0.0908067