LAMMPS input data for use with read_data. AJ

       1 atoms
       0 bonds
       0 angles

       5 atom types
       3 bond types
       4 angle types
       2 dihedral types
       1 improper types

    0.0 7.2      xlo xhi
    0.0 7.2      ylo yhi
    0.0 7.2      zlo zhi
Masses

1 39.95
2 12.01
3 14.01
4 15.995
5 1.008

Atoms

      1  1  1  3.60000    3.60000    3.60000
