----- GAMESS execution script 'rungms' -----
This job is running on host node1
under operating system Linux at lun 04 jul 2022 12:37:12 CEST
Available scratch disk space (Kbyte units) at beginning of the job is
Filesystem     1K-blocks     Used Available Use% Mounted on
/dev/sda2       95463852 15217252  75354184  17% /
GAMESS temporary binary files will be written to /tmp
GAMESS supplementary output files will be written to /tmp
Copying input file ./nitro_freqs.inp to your run's scratch directory...
 
Assuming a single but multicore node.
 

 Distributed Data Interface kickoff program.
 Initiating 8 compute processes on 1 nodes to run the following command:
 /home/ajurado/Desktop/gamess/gamess.00.x nitro_freqs 

          *******************************************************
          *                                                     *
          *          GAMESS VERSION = 30 JUN 2021 (R1)          *
          *                                                     *
          *              doi.org/10.1063/5.0005188              *
          *                                                     *
          **************** 64 BIT LINUX VERSION *****************

  GAMESS HAS BEEN MADE POSSIBLE WITH IMPORTANT CONTRIBUTIONS FROM
  THE FOLLOWING INDIVIDUALS (IN ALPHABETICAL ORDER):

     IVANA ADAMOVIC, CHRISTINE AIKENS, TOMOKO AKAMA,
     YURI ALEXEEV, YURIKO AOKI, POOJA ARORA, TOSHIO ASADA,
     ANDREY ASADCHEV, KIM K. BALDRIDGE, PRADIPTA BANDYOPADHYAY,
     MARIA BARYSZ, ROB BELL, JONATHAN BENTZ, COLLEEN BERTONI,
     JERRY A. BOATZ, BRETT BODE, KURT BRORSEN, KURT R. BRORSEN,
     LAIMUTIS BYTAUTAS, CALEB CARLIN, LAURA CARRINGTON,
     GALINA CHABAN, BENOIT CHAMPAGNE, WEI CHEN, MAHITO CHIBA,
     DAN CHIPMAN, CHEOL HO CHOI, TANNER CULPITT,
     DIPAYAN DATTA, PAUL DAY, ALBERT DEFUSCO,
     NUWAN DESILVA, J. EMILIANO DEUSTUA,
     TIM DUDLEY, MICHEL DUPUIS, STEVEN T. ELBERT,
     DMITRI FEDOROV, ALEX FINDLATER, GRAHAM FLETCHER,
     MARK FREITAG, CHRISTIAN FRIEDL, DAVID GARMER,
     IGOR S. GERASIMOV, KURT GLAESEMANN, MARK S. GORDON,
     JEFFREY GOUR, FENG LONG GU, EMILIE B. GUIDEZ,
     ANASTASIA GUNINA, SHARON HAMMES-SCHIFFER, MASATAKE HARUTA,
     KIMIHIKO HIRAO, YASUHIRO IKABATA, TZVETELIN IORDANOV,
     STEPHAN IRLE, KAZUYA ISHIMURA, JOE IVANIC, FRANK JENSEN,
     JAN H. JENSEN, VISVALDAS KAIRYS, MUNEAKI KAMIYA,
     MICHIO KATOUDA, NAOAKI KAWAKAMI, DAN KEMP, BERNARD KIRTMAN,
     KAZUO KITAURA, MARIUSZ KLOBUKOWSKI, MASATO KOBAYASHI,
     PRAKASHAN KORAMBATH, JACEK KORCHOWIEC, SHIRO KOSEKI,
     KAROL KOWALSKI, JIMMY KROMANN, STANISLAW KUCHARSKI,
     HENRY KURTZ, SAROM SOK LEANG, HUI LI, SHUHUA LI, WEI LI,
     JESSE LUTZ, ALEKSANDR O. LYKHIN, MARCIN MAKOWSKI,
     JOANI MATO, NIKITA MATSUNAGA, BENEDETTA MENNUCCI,
     GRANT MERRILL, NORIYUKI MINEZAWA, VLADIMIR MIRONOV,
     EISAKU MIYOSHI, JOHN A. MONTGOMERY JR., HIROTOSHI MORI,
     JONATHAN MULLIN, MONIKA MUSIAL, SHIGERU NAGASE,
     TAKESHI NAGATA, HIROMI NAKAI, TAKAHITO NAKAJIMA,
     YUYA NAKAJIMA, HARUYUKI NAKANO, HIROYA NAKATA, SEAN NEDD,
     HEATHER NETZLOFF, KIET A. NGUYEN, YOSHIO NISHIMOTO,
     BOSILJKA NJEGIC, RYAN OLSON, MIKE PAK, ROBERTO PEVERATI,
     BUU PHAM, PIOTR PIECUCH, ANNA POMOGAEVA, DAVID POOLE,
     SPENCER PRUITT, OLIVIER QUINET, LUKE ROSKOP,
     KLAUS RUEDENBERG, ANDREW SAND, TOSAPORN SATTASATHUCHANA,
     NOZOMI SAWADA, MICHAEL W. SCHMIDT, PATRICK E. SCHNEIDER,
     JUNJI SEINO, PRACHI SHARMA, JUN SHEN, JIM SHOEMAKER,
     YINAN SHU, DEJUN SI, JONATHAN SKONE, LYUDMILA SLIPCHENKO,
     TONY SMITH, JIE SONG, MARK SPACKMAN, CASPER STEINMANN,
     WALT STEVENS, PEIFENG SU, SHUJUN SU, CHET SWALINA,
     TETSUYA TAKETSUGU, ZHEN TAO, NANDUN THELLAMUREGE
     SEIKEN TOKURA, JACOPO TOMASI, TSUGUKI TOUMA, TAKAO TSUNEDA,
     HIROAKI UMEDA, JORGE LUIS GALVEZ VALLEJO, YALI WANG,
     SIMON WEBB, AARON WEST, THERESA L. WINDUS, MARTA WLOCH,
     PENG XU, KIYOSHI YAGI, SUSUMU YANAGISAWA, YANG YANG,
     SOOHAENG YOO, TAKESHI YOSHIKAWA, FEDERICO ZAHARIEV,
     TOBY ZENG

  WHO ARE SUPPORTED BY THEIR INSTITUTION/UNIVERSITY/COMPANY/GROUP
  (IN ALPHABETICAL ORDER):

     EP ANALYTICS, FACULTES UNIVERSITAIRES NOTRE-DAME DE LA PAIX,
     INSTITUTE FOR MOLECULAR SCIENCE, IOWA STATE UNIVERSITY,
     JACKSON STATE UNIVERSITY, JOHANNES KEPLER UNIVERSITY LINZ,
     KYUSHU UNIVERSITY, MICHIGAN STATE UNIVERSITY,
     MIE UNIVERSITY, MOSCOW STATE UNIVERSITY,
     N. COPERNICUS UNIVERSITY, NAGOYA UNIVERSITY,
     NANJING UNIVERSITY, NAT. INST. OF ADVANCED INDUSTRIAL
     SCIENCE AND TECHNOLOGY, NATIONAL INST. OF STANDARDS AND
     TECHNOLOGY, NESMEYANOV INSTITUTE OF ORGANOELEMENT COMPOUNDS
     OF RUSSIAN ACADEMY OF SCIENCES, OSAKA PREFECTURE UNIVERSITY,
     PENNSYLVANIA STATE UNIVERSITY, TOKYO INSTITUTE OF TECHNOLOGY,
     UNIVERSITY OF AARHUS, UNIVERSITY OF ALBERTA,
     UNIVERSITY OF CALIFORNIA AT SANTA BARBARA,
     UNIVERSITY OF COPENHAGEN, UNIVERSITY OF IOWA,
     UNIVERSITY OF MEMPHIS, UNIVERSITY OF MINNESOTA,
     UNIVERSITY OF NEBRASKA, UNIVERSITY OF NEW ENGLAND,
     UNIVERSITY OF NOTRE DAME, UNIVERSITY OF PISA,
     UNIVERSITY OF SILESIA, UNIVERSITY OF TOKYO,
     UNIVERSITY OF ZURICH, WASEDA UNIVERSITY, YALE UNIVERSITY

  GAMESS SOFTWARE MANAGEMENT TEAM FOR THIS RELEASE:
     MARK S. GORDON (TEAM LEAD),
     BRETT BODE (SENIOR ADVISOR),
     GIUSEPPE BARCA,
     COLLEEN BERTONI,
     KRISTOPHER KEIPERT (ADVISOR),
     SAROM S. LEANG (DEVELOPMENT LEAD),
     BUU PHAM,
     JORGE LUIS GALVEZ VALLEJO (WEBSITE ADMINISTRATOR),
     PENG XU


 PARALLEL VERSION RUNNING ON        8 PROCESSORS IN        1 NODES.

 EXECUTION OF GAMESS BEGUN 12:37:13 04-JUL-2022    

            ECHO OF THE FIRST FEW INPUT CARDS -
 INPUT CARD>! Frequencies Gamess input file                                                 
 INPUT CARD>!                                                                               
 INPUT CARD> $CONTRL                                                                        
 INPUT CARD>  SCFTYP=RHF                                                                    
 INPUT CARD>  DFTTYP=B3LYPV3                                                                
 INPUT CARD>  RUNTYP=HESSIAN                                                                
 INPUT CARD>  NOSYM=1                                                                       
 INPUT CARD>  MPLEVL=0                                                                      
 INPUT CARD>  ICHARG=0                                                                      
 INPUT CARD>  MULT=1                                                                        
 INPUT CARD>  NPRINT=-5                                                                     
 INPUT CARD>  MAXIT=50                                                                      
 INPUT CARD> $END                                                                           
 INPUT CARD> $FORCE                                                                         
 INPUT CARD>  METHOD=SEMINUM                                                                
 INPUT CARD> $END                                                                           
 INPUT CARD> $STATP                                                                         
 INPUT CARD>  NSTEP=200                                                                     
 INPUT CARD>  OPTTOL=0.00001                                                                
 INPUT CARD> $END                                                                           
 INPUT CARD> $DFT                                                                           
 INPUT CARD>  NRAD=99                                                                       
 INPUT CARD>  NLEB=590                                                                      
 INPUT CARD> $END                                                                           
 INPUT CARD> $SCF                                                                           
 INPUT CARD>  CONV=1.0D-6                                                                   
 INPUT CARD>  MAXVT=50                                                                      
 INPUT CARD> $END                                                                           
 INPUT CARD> $SYSTEM                                                                        
 INPUT CARD>  MWORDS=50                                                                     
 INPUT CARD> $END                                                                           
 INPUT CARD> $BASIS                                                                         
 INPUT CARD>  GBASIS=N311                                                                   
 INPUT CARD>  NGAUSS=6                                                                      
 INPUT CARD>  NDFUNC=1                                                                      
 INPUT CARD>  NPFUNC=1                                                                      
 INPUT CARD>  DIFFSP=.TRUE.                                                                 
 INPUT CARD>  DIFFS=.TRUE.                                                                  
 INPUT CARD> $END                                                                           
 INPUT CARD> $GUESS                                                                         
 INPUT CARD>  GUESS=HUCKEL                                                                  
 INPUT CARD> $END                                                                           
 INPUT CARD> $DATA                                                                          
 INPUT CARD>Comment card                                                                    
 INPUT CARD>C1                                                                              
 INPUT CARD> C   6.0   -0.0024102098  -0.0138928746  -0.0000003454                          
 INPUT CARD> N   7.0    1.5013221743  -0.0093081207  -0.0000002139                          
 INPUT CARD> O   8.0    2.0586981175   0.0084314853   1.0865761691                          
 INPUT CARD> O   8.0    2.0586998310   0.0084091058  -1.0865763764                          
 INPUT CARD> H   1.0   -0.3155354477   1.0304262381   0.0000082934                          
   50000000 WORDS OF MEMORY AVAILABLE

     BASIS OPTIONS
     -------------
     GBASIS=N311         IGAUSS=       6      POLAR=POPN311 
     NDFUNC=       1     NFFUNC=       0     DIFFSP=       T
     NPFUNC=       1      DIFFS=       T     BASNAM=        


     RUN TITLE
     ---------
 Comment card                                                                    

 THE POINT GROUP OF THE MOLECULE IS C1      
 THE ORDER OF THE PRINCIPAL AXIS IS     0

 ATOM      ATOMIC                      COORDINATES (BOHR)
           CHARGE         X                   Y                   Z
 C           6.0    -0.0045546361       -0.0262537262       -0.0000006527
 N           7.0     2.8370875287       -0.0175897976       -0.0000004042
 O           8.0     3.8903753335        0.0159331969        2.0533312244
 O           8.0     3.8903785716        0.0158909058       -2.0533316161
 H           1.0    -0.5962755356        1.9472232406        0.0000156723
 H           1.0    -0.6363622230       -0.9675891268       -1.7115201530
 H           1.0    -0.6363599710       -0.9676146349        1.7115059332

          INTERNUCLEAR DISTANCES (ANGS.)
          ------------------------------

                1 C          2 N          3 O          4 O          5 H     

   1 C       0.0000000    1.5037394 *  2.3300889 *  2.3300900 *  1.0902522 *
   2 N       1.5037394 *  0.0000000    1.2213234 *  1.2213237 *  2.0933273 *
   3 O       2.3300889 *  1.2213234 *  0.0000000    2.1731525 *  2.8039415 *
   4 O       2.3300900 *  1.2213237 *  2.1731525 *  0.0000000    2.8039576 *
   5 H       1.0902522 *  2.0933273 *  2.8039415 *  2.8039576 *  0.0000000  
   6 H       1.0863729 *  2.1098617 *  3.1588281    2.4579956 *  1.7888299 *
   7 H       1.0863731 *  2.1098609 *  2.4580009 *  3.1588224    1.7888293 *

                6 H          7 H     

   1 C       1.0863729 *  1.0863731 *
   2 N       2.1098617 *  2.1098609 *
   3 O       3.1588281    2.4580009 *
   4 O       2.4579956 *  3.1588224  
   5 H       1.7888299 *  1.7888293 *
   6 H       0.0000000    1.8113875 *
   7 H       1.8113875 *  0.0000000  

  * ... LESS THAN  3.000


     ATOMIC BASIS SET
     ----------------
 THE CONTRACTED PRIMITIVE FUNCTIONS HAVE BEEN UNNORMALIZED
 THE CONTRACTED BASIS FUNCTIONS ARE NOW NORMALIZED TO UNITY

  SHELL TYPE  PRIMITIVE        EXPONENT          CONTRACTION COEFFICIENT(S)

 C         

      1   S       1          4563.2400000    0.001966650249
      1   S       2           682.0240000    0.015230601932
      1   S       3           154.9730000    0.076126909656
      1   S       4            44.4553000    0.260801033080
      1   S       5            13.0290000    0.616462078191
      1   S       6             1.8277300    0.221006028032

      2   L       7            20.9642000    0.114660080729    0.040248692673
      2   L       8             4.8033100    0.919999647749    0.237593956746
      2   L       9             1.4593300   -0.003030682134    0.815853851473

      3   L      10             0.4834560    1.000000000000    1.000000000000

      4   L      11             0.1455850    1.000000000000    1.000000000000

      5   L      12             0.0438000    1.000000000000    1.000000000000

      6   D      13             0.6260000    1.000000000000

 N         

      7   S      14          6293.4800000    0.001969788147
      7   S      15           949.0440000    0.014961285923
      7   S      16           218.7760000    0.073500530843
      7   S      17            63.6916000    0.248936765774
      7   S      18            18.8282000    0.602459433142
      7   S      19             2.7202300    0.256201758938

      8   L      20            30.6331000    0.111906079519    0.038311918640
      8   L      21             7.0261400    0.921666654920    0.237403115502
      8   L      22             2.1120500   -0.002569191826    0.817592397779

      9   L      23             0.6840090    1.000000000000    1.000000000000

     10   L      24             0.2008780    1.000000000000    1.000000000000

     11   L      25             0.0639000    1.000000000000    1.000000000000

     12   D      26             0.9130000    1.000000000000

 O         

     13   S      27          8588.5000000    0.001895150083
     13   S      28          1297.2300000    0.014385900631
     13   S      29           299.2960000    0.070732003103
     13   S      30            87.3771000    0.240001010530
     13   S      31            25.6789000    0.594797026097
     13   S      32             3.7400400    0.280802012320

     14   L      33            42.1175000    0.113889012440    0.036511397380
     14   L      34             9.6283700    0.920811100576    0.237152982984
     14   L      35             2.8533200   -0.003274470358    0.819701941186

     15   L      36             0.9056610    1.000000000000    1.000000000000

     16   L      37             0.2556110    1.000000000000    1.000000000000

     17   L      38             0.0845000    1.000000000000    1.000000000000

     18   D      39             1.2920000    1.000000000000

 O         

     19   S      40          8588.5000000    0.001895150083
     19   S      41          1297.2300000    0.014385900631
     19   S      42           299.2960000    0.070732003103
     19   S      43            87.3771000    0.240001010530
     19   S      44            25.6789000    0.594797026097
     19   S      45             3.7400400    0.280802012320

     20   L      46            42.1175000    0.113889012440    0.036511397380
     20   L      47             9.6283700    0.920811100576    0.237152982984
     20   L      48             2.8533200   -0.003274470358    0.819701941186

     21   L      49             0.9056610    1.000000000000    1.000000000000

     22   L      50             0.2556110    1.000000000000    1.000000000000

     23   L      51             0.0845000    1.000000000000    1.000000000000

     24   D      52             1.2920000    1.000000000000

 H         

     25   S      53            33.8650000    0.025493814541
     25   S      54             5.0947900    0.190373108582
     25   S      55             1.1587900    0.852161486043

     26   S      56             0.3258400    1.000000000000

     27   S      57             0.1027410    1.000000000000

     28   S      58             0.0360000    1.000000000000

     29   P      59             0.7500000    1.000000000000

 H         

     30   S      60            33.8650000    0.025493814541
     30   S      61             5.0947900    0.190373108582
     30   S      62             1.1587900    0.852161486043

     31   S      63             0.3258400    1.000000000000

     32   S      64             0.1027410    1.000000000000

     33   S      65             0.0360000    1.000000000000

     34   P      66             0.7500000    1.000000000000

 H         

     35   S      67            33.8650000    0.025493814541
     35   S      68             5.0947900    0.190373108582
     35   S      69             1.1587900    0.852161486043

     36   S      70             0.3258400    1.000000000000

     37   S      71             0.1027410    1.000000000000

     38   S      72             0.0360000    1.000000000000

     39   P      73             0.7500000    1.000000000000

 TOTAL NUMBER OF BASIS SET SHELLS             =   39
 NUMBER OF CARTESIAN GAUSSIAN BASIS FUNCTIONS =  113
 NUMBER OF ELECTRONS                          =   32
 CHARGE OF MOLECULE                           =    0
 SPIN MULTIPLICITY                            =    1
 NUMBER OF OCCUPIED ORBITALS (ALPHA)          =   16
 NUMBER OF OCCUPIED ORBITALS (BETA )          =   16
 TOTAL NUMBER OF ATOMS                        =    7
 THE NUCLEAR REPULSION ENERGY IS      124.7610487989

 SELECTED MURRAY-HANDY-LAMING RADIAL GRID

 LEGACY BECKE'S FUZZY CELL METHOD

 SELECTED ORIGINAL BECKE'S PARTITION FUNCTION

     LEBEDEV GRID-BASED DFT OPTIONS
     ------------------------------
     DFTTYP=B3LYPV3 
     NRAD  =      99     NLEB  =     590
     NRAD0 =      99     NLEB0 =     590
     SWOFF =    5.00E-03 (PURE SCF -> DFT)
     SWITCH=    3.00E-04 (COARSE -> TIGHT GRID)
     THRESH=    0.00E+00 GTHRE=    1.00E+00

 GRIMME'S EMPIRICAL DISPERSION CORRECTION= F

     $CONTRL OPTIONS
     ---------------
 SCFTYP=RHF          RUNTYP=HESSIAN      EXETYP=RUN     
 MPLEVL=       0     CITYP =NONE         CCTYP =NONE         VBTYP =NONE    
 DFTTYP=B3LYPV3      TDDFT =NONE    
 MULT  =       1     ICHARG=       0     NZVAR =       0     COORD =UNIQUE  
 PP    =NONE         RELWFN=NONE         LOCAL =NONE         NUMGRD=       F
 ISPHER=      -1     NOSYM =       1     MAXIT =      50     UNITS =ANGS    
 PLTORB=       F     MOLPLT=       F     AIMPAC=       F     FRIEND=        
 NPRINT=      -5     IREST =       0     GEOM  =INPUT   
 NORMF =       0     NORMP =       0     ITOL  =      20     ICUT  =       9
 INTTYP=BEST         GRDTYP=BEST         QMTTOL= 1.0E-06

     $SYSTEM OPTIONS
     ---------------
  REPLICATED MEMORY=    50000000 WORDS (ON EVERY NODE).
 DISTRIBUTED MEMDDI=           0 MILLION WORDS IN AGGREGATE,
 MEMDDI DISTRIBUTED OVER   8 PROCESSORS IS           0 WORDS/PROCESSOR.
 TOTAL MEMORY REQUESTED ON EACH PROCESSOR=    50000000 WORDS.
 TIMLIM=      525600.00 MINUTES, OR     365.0 DAYS.
 PARALL= T  BALTYP=  DLB     KDIAG=    0  COREFL= F
 MXSEQ2=     300 MXSEQ3=     150  mem10=         0  mem22=         0

          ----------------
          PROPERTIES INPUT
          ----------------

     MOMENTS            FIELD           POTENTIAL          DENSITY
 IEMOM =       1   IEFLD =       0   IEPOT =       0   IEDEN =       0
 WHERE =COMASS     WHERE =NUCLEI     WHERE =NUCLEI     WHERE =NUCLEI  
 OUTPUT=BOTH       OUTPUT=BOTH       OUTPUT=BOTH       OUTPUT=BOTH    
 IEMINT=       0   IEFINT=       0                     IEDINT=       0
                                                       MORB  =       0
          EXTRAPOLATION IN EFFECT
          DIIS IN EFFECT
 ORBITAL PRINTING OPTION: NPREO=     1   113     2     1

     -------------------------------
     INTEGRAL TRANSFORMATION OPTIONS
     -------------------------------
     NWORD  =            0
     CUTOFF = 1.0E-09     MPTRAN =       0
     DIRTRF =       F     AOINTS =DUP     

          ----------------------
          INTEGRAL INPUT OPTIONS
          ----------------------
 NOPK  =       1 NORDER=       0 SCHWRZ=       T

     ------------------------------------------
     THE POINT GROUP IS C1 , NAXIS= 1, ORDER= 1
     ------------------------------------------

     DIMENSIONS OF THE SYMMETRY SUBSPACES ARE
 A   =  113

 ..... DONE SETTING UP THE RUN .....
 CPU     0: STEP CPU TIME=     0.01 TOTAL CPU TIME=          0.0 (      0.0 MIN)
 TOTAL WALL CLOCK TIME=          0.0 SECONDS, CPU UTILIZATION IS    88.86%

               * * * EFFICIENCY NOTE * * *
 THIS CALCULATION CAN BE RUN WITH DIFFERENTIATION METHOD=ANALYTIC
 THIS MIGHT BE MORE ACCURATE AND/OR FASTER THAN YOUR CHOICE,
 BUT THE REQUESTED CALCULATION METHOD=SEMINUM  IS PROCEEDING.

1   ATOM  0
                                        -------------------
   COORD  0                             NUCLEAR COORDINATES
                                        -------------------
     VIB  0

                       ATOM             X              Y              Z

                 1  C               -0.004555      -0.026254      -0.000001
                 2  N                2.837088      -0.017590      -0.000000
                 3  O                3.890375       0.015933       2.053331
                 4  O                3.890379       0.015891      -2.053332
                 5  H               -0.596276       1.947223       0.000016
                 6  H               -0.636362      -0.967589      -1.711520
                 7  H               -0.636360      -0.967615       1.711506
 ...... END OF ONE-ELECTRON INTEGRALS ......
 CPU     0: STEP CPU TIME=     0.00 TOTAL CPU TIME=          0.0 (      0.0 MIN)
 TOTAL WALL CLOCK TIME=          0.0 SECONDS, CPU UTILIZATION IS    87.98%

          -------------
          GUESS OPTIONS
          -------------
          GUESS =HUCKEL            NORB  =       0          NORDER=       0
          MIX   =       F          PRTMO =       F          PUNMO =       F
          TOLZ  = 1.0E-08          TOLE  = 1.0E-05
          SYMDEN=       F          PURIFY=       F

 INITIAL GUESS ORBITALS GENERATED BY HUCKEL   ROUTINE.
 HUCKEL GUESS REQUIRES     99858 WORDS.

 SYMMETRIES FOR INITIAL GUESS ORBITALS FOLLOW.   BOTH SET(S).
    16 ORBITALS ARE OCCUPIED (    4 CORE ORBITALS).
     5=A        6=A        7=A        8=A        9=A       10=A       11=A   
    12=A       13=A       14=A       15=A       16=A       17=A       18=A   
    19=A       20=A       21=A       22=A       23=A       24=A       25=A   
    26=A   
 ...... END OF INITIAL ORBITAL SELECTION ......
 CPU     0: STEP CPU TIME=     0.02 TOTAL CPU TIME=          0.0 (      0.0 MIN)
 TOTAL WALL CLOCK TIME=          0.0 SECONDS, CPU UTILIZATION IS    94.60%

                    ----------------------
                    AO INTEGRAL TECHNOLOGY
                    ----------------------
     S,P,L SHELL ROTATED AXIS INTEGRALS, REPROGRAMMED BY
        KAZUYA ISHIMURA (IMS) AND JOSE SIERRA (SYNSTAR).
     S,P,D,L SHELL ROTATED AXIS INTEGRALS PROGRAMMED BY
        KAZUYA ISHIMURA (INSTITUTE FOR MOLECULAR SCIENCE).
     S,P,D,F,G SHELL TO TOTAL QUARTET ANGULAR MOMENTUM SUM 5,
        ERIC PROGRAM BY GRAHAM FLETCHER (ELORET AND NASA ADVANCED
        SUPERCOMPUTING DIVISION, AMES RESEARCH CENTER).
     S,P,D,F,G,L SHELL GENERAL RYS QUADRATURE PROGRAMMED BY
        MICHEL DUPUIS (PACIFIC NORTHWEST NATIONAL LABORATORY).
 TOTAL NUMBER OF NONZERO TWO-ELECTRON INTEGRALS =            18064071
       1209 INTEGRAL RECORDS WERE STORED ON DISK FILE  8.
  ...... END OF TWO-ELECTRON INTEGRALS .....
 CPU     0: STEP CPU TIME=     0.14 TOTAL CPU TIME=          0.2 (      0.0 MIN)
 TOTAL WALL CLOCK TIME=          0.2 SECONDS, CPU UTILIZATION IS    97.70%

          --------------------------
           R-B3LYPV3 SCF CALCULATION
          --------------------------
         DENSITY MATRIX CONVERGENCE THRESHOLD=  1.00E-06
     COARSE -> FINE DFT GRID SWITCH THRESHOLD=  3.00E-04 (SWITCH IN $DFT)
                   HF -> DFT SWITCH THRESHOLD=  5.00E-03 (SWOFF IN $DFT)

     EXCHANGE FUNCTIONAL   =B88&HFX   
     CORRELATION FUNCTIONAL=LYP88&VWN3
     DFT THRESHOLD         =.245E-08
 FOR AN EULER-MACLAURIN QUADRATURE USING  99 RADIAL POINTS:
 SMALLEST GAUSSIAN PRIMITIVE EXPONENT=        0.0360000000 OF TYPE -S-
 ON ATOM NUMBER   5 HAS RADIAL NORMALIZATION=  1.000000
  LARGEST GAUSSIAN PRIMITIVE EXPONENT=     8588.5000000000 OF TYPE -S-
 ON ATOM NUMBER   3 HAS RADIAL NORMALIZATION=  1.000000
 DFT IS SWITCHED OFF, PERFORMING PURE SCF UNTIL SWOFF THRESHOLD IS REACHED.

 ITER EX DEM     TOTAL ENERGY        E CHANGE  DENSITY CHANGE    DIIS ERROR
   1  0  0     -242.5737216432  -242.5737216432   0.527293526   1.557858572
          * * *   INITIATING DIIS PROCEDURE   * * *
   2  1  0     -243.4126752196    -0.8389535764   0.347874982   0.448851082
   3  2  0     -243.5360833485    -0.1234081289   0.173435088   0.380453630
   4  3  0     -243.7301228343    -0.1940394858   0.015792977   0.012666285
   5  4  0     -243.7315018473    -0.0013790130   0.008864379   0.005446239
   6  5  0     -243.7317442779    -0.0002424306   0.003313007   0.001996478
 CONVERGED TO SWOFF, SO DFT CALCULATION IS NOW SWITCHED ON.
          * * *   INITIATING DIIS PROCEDURE   * * *
   7  6  0     -244.9374679353    -1.2057236574   0.056278159   0.151324732
   8  7  0     -244.9668656721    -0.0293977369   0.083783788   0.070632005
   9  8  0     -244.9591761715     0.0076895006   0.044237242   0.104263871
  10  9  0     -244.9749076369    -0.0157314654   0.006232187   0.013157388
  11 10  0     -244.9752020130    -0.0002943761   0.000866019   0.001803704
  12 11  0     -244.9752114946    -0.0000094817   0.000121700   0.000208969
  13 12  0     -244.9752115804    -0.0000000858   0.000071921   0.000059100
  14 13  0     -244.9752115984    -0.0000000180   0.000013926   0.000023315
  15 14  0     -244.9752116002    -0.0000000018   0.000004179   0.000009670
  16 15  0     -244.9752116002    -0.0000000000   0.000001975   0.000007604
  17 16  0     -244.9752116003    -0.0000000001   0.000000158   0.000000160

          -----------------
          DENSITY CONVERGED
          -----------------
     TIME TO FORM FOCK OPERATORS=       8.1 SECONDS (       0.5 SEC/ITER)
     TIME TO SOLVE SCF EQUATIONS=       0.2 SECONDS (       0.0 SEC/ITER)

 FINAL R-B3LYPV3 ENERGY IS     -244.9752116003 AFTER  17 ITERATIONS
 DFT EXCHANGE + CORRELATION ENERGY =       -24.5985755135
 TOTAL ELECTRON NUMBER             =        31.9999933757
 ...... END OF RHF CALCULATION ......
 CPU     0: STEP CPU TIME=     8.37 TOTAL CPU TIME=          8.5 (      0.1 MIN)
 TOTAL WALL CLOCK TIME=          8.6 SECONDS, CPU UTILIZATION IS    99.37%
 ..... END OF 1-ELECTRON GRADIENT ......
 CPU     0: STEP CPU TIME=     0.00 TOTAL CPU TIME=          8.5 (      0.1 MIN)
 TOTAL WALL CLOCK TIME=          8.6 SECONDS, CPU UTILIZATION IS    99.36%
 MEMORY FOR GRID POINT CONTRIBUTIONS TO THE DFT GRADIENT=    536665 WORDS.
 CPU     0: STEP CPU TIME=     1.19 TOTAL CPU TIME=          9.7 (      0.2 MIN)
 TOTAL WALL CLOCK TIME=          9.8 SECONDS, CPU UTILIZATION IS    99.40%
 ...... END OF 2-ELECTRON GRADIENT ......
 CPU     0: STEP CPU TIME=     0.28 TOTAL CPU TIME=         10.0 (      0.2 MIN)
 TOTAL WALL CLOCK TIME=         10.1 SECONDS, CPU UTILIZATION IS    99.38%
 THE VIB 0 GRADIENT RMS = 2.09391239E-05

 THE VIB 0 GEOMETRY GRADIENT IS

 UNITS ARE HARTREE/BOHR    E'X               E'Y               E'Z 
    1 C                0.000057569      -0.000012188       0.000000017
    2 N               -0.000019257      -0.000027003       0.000000000
    3 O               -0.000028229       0.000008488      -0.000034043
    4 O               -0.000028283       0.000008514       0.000034093
    5 H               -0.000001528       0.000009818      -0.000000038
    6 H                0.000009832       0.000006185       0.000010289
    7 H                0.000009897       0.000006186      -0.000010314
  $VIB   
          IVIB=   0 IATOM=   0 ICOORD=   0 E=     -244.9752116003
  5.756850472E-05-1.218811467E-05 1.749248828E-08-1.925698750E-05-2.700315010E-05
  0.000000000E+00-2.822874887E-05 8.488284117E-06-3.404325475E-05-2.828322654E-05
  8.513734932E-06 3.409263070E-05-1.528269297E-06 9.818495945E-06-3.819266726E-08
  9.831993860E-06 6.184851057E-06 1.028865840E-05 9.896733633E-06 6.185898723E-06
 -1.031427114E-05
 -3.794761141E+00-1.341386169E-02 8.313908745E-06
1   ATOM  1
                                        -------------------
   COORD  1                             NUCLEAR COORDINATES
                                        -------------------
     VIB  1

                       ATOM             X              Y              Z

                 1  C                0.005445      -0.026254      -0.000001
                 2  N                2.837088      -0.017590      -0.000000
                 3  O                3.890375       0.015933       2.053331
                 4  O                3.890379       0.015891      -2.053332
                 5  H               -0.596276       1.947223       0.000016
                 6  H               -0.636362      -0.967589      -1.711520
                 7  H               -0.636360      -0.967615       1.711506
 ...... END OF ONE-ELECTRON INTEGRALS ......
 CPU     0: STEP CPU TIME=     0.00 TOTAL CPU TIME=         10.0 (      0.2 MIN)
 TOTAL WALL CLOCK TIME=         10.1 SECONDS, CPU UTILIZATION IS    99.09%
 TOTAL NUMBER OF NONZERO TWO-ELECTRON INTEGRALS =            18069866
       1208 INTEGRAL RECORDS WERE STORED ON DISK FILE  8.
  ...... END OF TWO-ELECTRON INTEGRALS .....
 CPU     0: STEP CPU TIME=     0.15 TOTAL CPU TIME=         10.2 (      0.2 MIN)
 TOTAL WALL CLOCK TIME=         10.3 SECONDS, CPU UTILIZATION IS    99.07%

          --------------------------
           R-B3LYPV3 SCF CALCULATION
          --------------------------
         DENSITY MATRIX CONVERGENCE THRESHOLD=  1.00E-06
     COARSE -> FINE DFT GRID SWITCH THRESHOLD=  3.00E-04 (SWITCH IN $DFT)
                   HF -> DFT SWITCH THRESHOLD=  5.00E-03 (SWOFF IN $DFT)

 ITER EX DEM     TOTAL ENERGY        E CHANGE  DENSITY CHANGE    DIIS ERROR
          * * *   INITIATING DIIS PROCEDURE   * * *
   1  0  0     -244.9751775236  -244.9751775236   0.001693781   0.001488484
   2  1  0     -244.9751904476    -0.0000129240   0.000847322   0.000753092
   3  2  0     -244.9751894275     0.0000010200   0.000482879   0.001212799
   4  3  0     -244.9751913458    -0.0000019183   0.000081161   0.000062406
   5  4  0     -244.9751913620    -0.0000000161   0.000022325   0.000020850
   6  5  0     -244.9751913645    -0.0000000026   0.000003797   0.000003561
   7  6  0     -244.9751913646    -0.0000000000   0.000000808   0.000001417
   8  7  0     -244.9751913646    -0.0000000000   0.000000180   0.000000249

          -----------------
          DENSITY CONVERGED
          -----------------
     TIME TO FORM FOCK OPERATORS=       5.7 SECONDS (       0.7 SEC/ITER)
     TIME TO SOLVE SCF EQUATIONS=       0.1 SECONDS (       0.0 SEC/ITER)

 FINAL R-B3LYPV3 ENERGY IS     -244.9751913646 AFTER   8 ITERATIONS
 DFT EXCHANGE + CORRELATION ENERGY =       -24.5988512594
 TOTAL ELECTRON NUMBER             =        31.9999925183
 ...... END OF RHF CALCULATION ......
 CPU     0: STEP CPU TIME=     5.84 TOTAL CPU TIME=         16.0 (      0.3 MIN)
 TOTAL WALL CLOCK TIME=         16.2 SECONDS, CPU UTILIZATION IS    98.84%
 ..... END OF 1-ELECTRON GRADIENT ......
 CPU     0: STEP CPU TIME=     0.00 TOTAL CPU TIME=         16.0 (      0.3 MIN)
 TOTAL WALL CLOCK TIME=         16.2 SECONDS, CPU UTILIZATION IS    98.83%
 MEMORY FOR GRID POINT CONTRIBUTIONS TO THE DFT GRADIENT=    536665 WORDS.
 CPU     0: STEP CPU TIME=     1.16 TOTAL CPU TIME=         17.2 (      0.3 MIN)
 TOTAL WALL CLOCK TIME=         17.4 SECONDS, CPU UTILIZATION IS    98.75%
 ...... END OF 2-ELECTRON GRADIENT ......
 CPU     0: STEP CPU TIME=     0.28 TOTAL CPU TIME=         17.5 (      0.3 MIN)
 TOTAL WALL CLOCK TIME=         17.7 SECONDS, CPU UTILIZATION IS    98.75%

 UNITS ARE HARTREE/BOHR    E'X               E'Y               E'Z 
    1 C                0.004006473       0.000127735       0.000000050
    2 N               -0.001321668      -0.000016430      -0.000000344
    3 O               -0.000310655      -0.000007036      -0.000253271
    4 O               -0.000310779      -0.000007005       0.000253605
    5 H               -0.000656530       0.000740389      -0.000000029
    6 H               -0.000703450      -0.000418820      -0.000703733
    7 H               -0.000703391      -0.000418832       0.000703722
  $VIB   
          IVIB=   1 IATOM=   1 ICOORD=   1 E=     -244.9751913646
  4.006472544E-03 1.277349108E-04 4.957790407E-08-1.321667530E-03-1.643040490E-05
 -3.439729922E-07-3.106549909E-04-7.036193278E-06-2.532706486E-04-3.107789327E-04
 -7.005446990E-06 2.536052793E-04-6.565297712E-04 7.403894306E-04-2.930317740E-08
 -7.034501117E-04-4.188204719E-04-7.037332620E-04-7.033912074E-04-4.188318244E-04
  7.037223296E-04
 -3.795241735E+00-1.277136426E-02 1.403197232E-05
1   ATOM  1
                                        -------------------
   COORD  2                             NUCLEAR COORDINATES
                                        -------------------
     VIB  1

                       ATOM             X              Y              Z

                 1  C               -0.004555      -0.016254      -0.000001
                 2  N                2.837088      -0.017590      -0.000000
                 3  O                3.890375       0.015933       2.053331
                 4  O                3.890379       0.015891      -2.053332
                 5  H               -0.596276       1.947223       0.000016
                 6  H               -0.636362      -0.967589      -1.711520
                 7  H               -0.636360      -0.967615       1.711506
 ...... END OF ONE-ELECTRON INTEGRALS ......
 CPU     0: STEP CPU TIME=     0.00 TOTAL CPU TIME=         17.5 (      0.3 MIN)
 TOTAL WALL CLOCK TIME=         17.7 SECONDS, CPU UTILIZATION IS    98.75%
 TOTAL NUMBER OF NONZERO TWO-ELECTRON INTEGRALS =            18043773
       1206 INTEGRAL RECORDS WERE STORED ON DISK FILE  8.
  ...... END OF TWO-ELECTRON INTEGRALS .....
 CPU     0: STEP CPU TIME=     0.15 TOTAL CPU TIME=         17.6 (      0.3 MIN)
 TOTAL WALL CLOCK TIME=         17.8 SECONDS, CPU UTILIZATION IS    98.73%

          --------------------------
           R-B3LYPV3 SCF CALCULATION
          --------------------------
         DENSITY MATRIX CONVERGENCE THRESHOLD=  1.00E-06
     COARSE -> FINE DFT GRID SWITCH THRESHOLD=  3.00E-04 (SWITCH IN $DFT)
                   HF -> DFT SWITCH THRESHOLD=  5.00E-03 (SWOFF IN $DFT)

 ITER EX DEM     TOTAL ENERGY        E CHANGE  DENSITY CHANGE    DIIS ERROR
          * * *   INITIATING DIIS PROCEDURE   * * *
   1  0  0     -244.9751708705  -244.9751708705   0.001082822   0.001064880
   2  1  0     -244.9751825866    -0.0000117160   0.000191220   0.000185751
   3  2  0     -244.9751827674    -0.0000001808   0.000067154   0.000089064
   4  3  0     -244.9751827956    -0.0000000281   0.000031373   0.000072392
   5  4  0     -244.9751828031    -0.0000000075   0.000008807   0.000021793
   6  5  0     -244.9751828042    -0.0000000011   0.000002558   0.000002423
   7  6  0     -244.9751828043    -0.0000000001   0.000001433   0.000001161
   8  7  0     -244.9751828043    -0.0000000000   0.000000441   0.000000717

          -----------------
          DENSITY CONVERGED
          -----------------
     TIME TO FORM FOCK OPERATORS=       5.7 SECONDS (       0.7 SEC/ITER)
     TIME TO SOLVE SCF EQUATIONS=       0.1 SECONDS (       0.0 SEC/ITER)

 FINAL R-B3LYPV3 ENERGY IS     -244.9751828043 AFTER   8 ITERATIONS
 DFT EXCHANGE + CORRELATION ENERGY =       -24.5986516000
 TOTAL ELECTRON NUMBER             =        31.9999936125
 ...... END OF RHF CALCULATION ......
 CPU     0: STEP CPU TIME=     5.84 TOTAL CPU TIME=         23.4 (      0.4 MIN)
 TOTAL WALL CLOCK TIME=         23.8 SECONDS, CPU UTILIZATION IS    98.68%
 ..... END OF 1-ELECTRON GRADIENT ......
 CPU     0: STEP CPU TIME=     0.00 TOTAL CPU TIME=         23.4 (      0.4 MIN)
 TOTAL WALL CLOCK TIME=         23.8 SECONDS, CPU UTILIZATION IS    98.68%
 MEMORY FOR GRID POINT CONTRIBUTIONS TO THE DFT GRADIENT=    536665 WORDS.
 CPU     0: STEP CPU TIME=     1.19 TOTAL CPU TIME=         24.6 (      0.4 MIN)
 TOTAL WALL CLOCK TIME=         25.0 SECONDS, CPU UTILIZATION IS    98.71%
 ...... END OF 2-ELECTRON GRADIENT ......
 CPU     0: STEP CPU TIME=     0.28 TOTAL CPU TIME=         24.9 (      0.4 MIN)
 TOTAL WALL CLOCK TIME=         25.2 SECONDS, CPU UTILIZATION IS    98.72%

 UNITS ARE HARTREE/BOHR    E'X               E'Y               E'Z 
    1 C                0.000170585       0.005792684      -0.000000026
    2 N               -0.000042516      -0.001033380       0.000000698
    3 O               -0.000064070       0.000230943      -0.000033450
    4 O               -0.000063972       0.000230970       0.000032906
    5 H                0.000700931      -0.003052631      -0.000000068
    6 H               -0.000350517      -0.001084283      -0.001081164
    7 H               -0.000350441      -0.001084302       0.001081104
  $VIB   
          IVIB=   1 IATOM=   1 ICOORD=   2 E=     -244.9751828043
  1.705848753E-04 5.792683590E-03-2.608089224E-08-4.251588848E-05-1.033379752E-03
  6.983796423E-07-6.407024441E-05 2.309430831E-04-3.345032457E-05-6.397203278E-05
  2.309697507E-04 3.290562599E-05 7.009311715E-04-3.052630808E-03-6.765274334E-08
 -3.505166824E-04-1.084283407E-03-1.081164054E-03-3.504411987E-04-1.084302457E-03
  1.081104106E-03
 -3.792457742E+00-8.556845659E-03-2.966096788E-06
1   ATOM  1
                                        -------------------
   COORD  3                             NUCLEAR COORDINATES
                                        -------------------
     VIB  1

                       ATOM             X              Y              Z

                 1  C               -0.004555      -0.026254       0.009999
                 2  N                2.837088      -0.017590      -0.000000
                 3  O                3.890375       0.015933       2.053331
                 4  O                3.890379       0.015891      -2.053332
                 5  H               -0.596276       1.947223       0.000016
                 6  H               -0.636362      -0.967589      -1.711520
                 7  H               -0.636360      -0.967615       1.711506
 ...... END OF ONE-ELECTRON INTEGRALS ......
 CPU     0: STEP CPU TIME=     0.00 TOTAL CPU TIME=         24.9 (      0.4 MIN)
 TOTAL WALL CLOCK TIME=         25.2 SECONDS, CPU UTILIZATION IS    98.72%
 TOTAL NUMBER OF NONZERO TWO-ELECTRON INTEGRALS =            18310574
       1224 INTEGRAL RECORDS WERE STORED ON DISK FILE  8.
  ...... END OF TWO-ELECTRON INTEGRALS .....
 CPU     0: STEP CPU TIME=     0.15 TOTAL CPU TIME=         25.1 (      0.4 MIN)
 TOTAL WALL CLOCK TIME=         25.4 SECONDS, CPU UTILIZATION IS    98.72%

          --------------------------
           R-B3LYPV3 SCF CALCULATION
          --------------------------
         DENSITY MATRIX CONVERGENCE THRESHOLD=  1.00E-06
     COARSE -> FINE DFT GRID SWITCH THRESHOLD=  3.00E-04 (SWITCH IN $DFT)
                   HF -> DFT SWITCH THRESHOLD=  5.00E-03 (SWOFF IN $DFT)

 ITER EX DEM     TOTAL ENERGY        E CHANGE  DENSITY CHANGE    DIIS ERROR
          * * *   INITIATING DIIS PROCEDURE   * * *
   1  0  0     -244.9751672153  -244.9751672153   0.001293700   0.001121917
   2  1  0     -244.9751777760    -0.0000105607   0.000816542   0.000986079
   3  2  0     -244.9751719193     0.0000058567   0.000598966   0.002416961
   4  3  0     -244.9751791375    -0.0000072182   0.000060334   0.000084286
   5  4  0     -244.9751791585    -0.0000000210   0.000006410   0.000009007
   6  5  0     -244.9751791589    -0.0000000004   0.000001048   0.000003573
   7  6  0     -244.9751791589    -0.0000000000   0.000000637   0.000000752

          -----------------
          DENSITY CONVERGED
          -----------------
     TIME TO FORM FOCK OPERATORS=       5.0 SECONDS (       0.7 SEC/ITER)
     TIME TO SOLVE SCF EQUATIONS=       0.1 SECONDS (       0.0 SEC/ITER)

 FINAL R-B3LYPV3 ENERGY IS     -244.9751791589 AFTER   7 ITERATIONS
 DFT EXCHANGE + CORRELATION ENERGY =       -24.5985740991
 TOTAL ELECTRON NUMBER             =        31.9999934142
 ...... END OF RHF CALCULATION ......
 CPU     0: STEP CPU TIME=     5.16 TOTAL CPU TIME=         30.2 (      0.5 MIN)
 TOTAL WALL CLOCK TIME=         30.6 SECONDS, CPU UTILIZATION IS    98.86%
 ..... END OF 1-ELECTRON GRADIENT ......
 CPU     0: STEP CPU TIME=     0.00 TOTAL CPU TIME=         30.2 (      0.5 MIN)
 TOTAL WALL CLOCK TIME=         30.6 SECONDS, CPU UTILIZATION IS    98.85%
 MEMORY FOR GRID POINT CONTRIBUTIONS TO THE DFT GRADIENT=    536665 WORDS.
 CPU     0: STEP CPU TIME=     1.18 TOTAL CPU TIME=         31.4 (      0.5 MIN)
 TOTAL WALL CLOCK TIME=         31.8 SECONDS, CPU UTILIZATION IS    98.88%
 ...... END OF 2-ELECTRON GRADIENT ......
 CPU     0: STEP CPU TIME=     0.28 TOTAL CPU TIME=         31.7 (      0.5 MIN)
 TOTAL WALL CLOCK TIME=         32.1 SECONDS, CPU UTILIZATION IS    98.88%

 UNITS ARE HARTREE/BOHR    E'X               E'Y               E'Z 
    1 C                0.000029922      -0.000064079       0.006488284
    2 N               -0.000016836      -0.000025705      -0.000818301
    3 O               -0.000500255       0.000023159      -0.000161322
    4 O                0.000441626      -0.000006148      -0.000092540
    5 H               -0.000002245       0.000017301      -0.000452621
    6 H               -0.000567221      -0.001053709      -0.002444097
    7 H                0.000615009       0.001109181      -0.002519404
  $VIB   
          IVIB=   1 IATOM=   1 ICOORD=   3 E=     -244.9751791589
  2.992195924E-05-6.407858665E-05 6.488283842E-03-1.683574645E-05-2.570468992E-05
 -8.183005202E-04-5.002552734E-04 2.315904276E-05-1.613216287E-04 4.416261493E-04
 -6.147920463E-06-9.253993324E-05-2.244955534E-06 1.730081783E-05-4.526209751E-04
 -5.672211584E-04-1.053709414E-03-2.444096913E-03 6.150090253E-04 1.109180750E-03
 -2.519403872E-03
 -3.794703700E+00-1.338601878E-02 3.521550841E-03
1   ATOM  2
                                        -------------------
   COORD  1                             NUCLEAR COORDINATES
                                        -------------------
     VIB  1

                       ATOM             X              Y              Z

                 1  C               -0.004555      -0.026254      -0.000001
                 2  N                2.847088      -0.017590      -0.000000
                 3  O                3.890375       0.015933       2.053331
                 4  O                3.890379       0.015891      -2.053332
                 5  H               -0.596276       1.947223       0.000016
                 6  H               -0.636362      -0.967589      -1.711520
                 7  H               -0.636360      -0.967615       1.711506
 ...... END OF ONE-ELECTRON INTEGRALS ......
 CPU     0: STEP CPU TIME=     0.00 TOTAL CPU TIME=         31.7 (      0.5 MIN)
 TOTAL WALL CLOCK TIME=         32.1 SECONDS, CPU UTILIZATION IS    98.88%
 TOTAL NUMBER OF NONZERO TWO-ELECTRON INTEGRALS =            18062119
       1209 INTEGRAL RECORDS WERE STORED ON DISK FILE  8.
  ...... END OF TWO-ELECTRON INTEGRALS .....
 CPU     0: STEP CPU TIME=     0.15 TOTAL CPU TIME=         31.9 (      0.5 MIN)
 TOTAL WALL CLOCK TIME=         32.2 SECONDS, CPU UTILIZATION IS    98.87%

          --------------------------
           R-B3LYPV3 SCF CALCULATION
          --------------------------
         DENSITY MATRIX CONVERGENCE THRESHOLD=  1.00E-06
     COARSE -> FINE DFT GRID SWITCH THRESHOLD=  3.00E-04 (SWITCH IN $DFT)
                   HF -> DFT SWITCH THRESHOLD=  5.00E-03 (SWOFF IN $DFT)

 ITER EX DEM     TOTAL ENERGY        E CHANGE  DENSITY CHANGE    DIIS ERROR
          * * *   INITIATING DIIS PROCEDURE   * * *
   1  0  0     -244.9751342437  -244.9751342437   0.001619891   0.002394071
   2  1  0     -244.9751764881    -0.0000422444   0.000910201   0.001033228
   3  2  0     -244.9751755200     0.0000009681   0.000487148   0.001162057
   4  3  0     -244.9751782785    -0.0000027585   0.000208900   0.000371445
   5  4  0     -244.9751784398    -0.0000001613   0.000050018   0.000061216
   6  5  0     -244.9751784550    -0.0000000152   0.000009349   0.000006885
   7  6  0     -244.9751784552    -0.0000000001   0.000002880   0.000002893
   8  7  0     -244.9751784552    -0.0000000000   0.000000764   0.000002449
   9  8  0     -244.9751784552    -0.0000000000   0.000000171   0.000000675

          -----------------
          DENSITY CONVERGED
          -----------------
     TIME TO FORM FOCK OPERATORS=       6.5 SECONDS (       0.7 SEC/ITER)
     TIME TO SOLVE SCF EQUATIONS=       0.1 SECONDS (       0.0 SEC/ITER)

 FINAL R-B3LYPV3 ENERGY IS     -244.9751784552 AFTER   9 ITERATIONS
 DFT EXCHANGE + CORRELATION ENERGY =       -24.5999400789
 TOTAL ELECTRON NUMBER             =        31.9999940111
 ...... END OF RHF CALCULATION ......
 CPU     0: STEP CPU TIME=     6.63 TOTAL CPU TIME=         38.5 (      0.6 MIN)
 TOTAL WALL CLOCK TIME=         38.9 SECONDS, CPU UTILIZATION IS    98.95%
 ..... END OF 1-ELECTRON GRADIENT ......
 CPU     0: STEP CPU TIME=     0.00 TOTAL CPU TIME=         38.5 (      0.6 MIN)
 TOTAL WALL CLOCK TIME=         38.9 SECONDS, CPU UTILIZATION IS    98.95%
 MEMORY FOR GRID POINT CONTRIBUTIONS TO THE DFT GRADIENT=    536665 WORDS.
 CPU     0: STEP CPU TIME=     1.18 TOTAL CPU TIME=         39.7 (      0.7 MIN)
 TOTAL WALL CLOCK TIME=         40.1 SECONDS, CPU UTILIZATION IS    98.95%
 ...... END OF 2-ELECTRON GRADIENT ......
 CPU     0: STEP CPU TIME=     0.28 TOTAL CPU TIME=         39.9 (      0.7 MIN)
 TOTAL WALL CLOCK TIME=         40.4 SECONDS, CPU UTILIZATION IS    98.95%

 UNITS ARE HARTREE/BOHR    E'X               E'Y               E'Z 
    1 C               -0.001181578      -0.000036323       0.000000014
    2 N                0.006642477       0.000037540       0.000000000
    3 O               -0.002530228      -0.000044349      -0.001913523
    4 O               -0.002530288      -0.000044285       0.001913573
    5 H               -0.000176238       0.000019253      -0.000000037
    6 H               -0.000112104       0.000034082       0.000020585
    7 H               -0.000112041       0.000034083      -0.000020608
  $VIB   
          IVIB=   1 IATOM=   2 ICOORD=   1 E=     -244.9751784552
 -1.181578229E-03-3.632262084E-05 1.433793594E-08 6.642477383E-03 3.753971534E-05
  0.000000000E+00-2.530228463E-03-4.434893651E-05-1.913522561E-03-2.530287974E-03
 -4.428519980E-05 1.913572795E-03-1.762376167E-04 1.925266319E-05-3.699808857E-08
 -1.121036584E-04 3.408168525E-05 2.058476055E-05-1.120414424E-04 3.408269336E-05
 -2.060816248E-05
 -3.766573078E+00-1.339004515E-02 8.367833868E-06
1   ATOM  2
                                        -------------------
   COORD  2                             NUCLEAR COORDINATES
                                        -------------------
     VIB  1

                       ATOM             X              Y              Z

                 1  C               -0.004555      -0.026254      -0.000001
                 2  N                2.837088      -0.007590      -0.000000
                 3  O                3.890375       0.015933       2.053331
                 4  O                3.890379       0.015891      -2.053332
                 5  H               -0.596276       1.947223       0.000016
                 6  H               -0.636362      -0.967589      -1.711520
                 7  H               -0.636360      -0.967615       1.711506
 ...... END OF ONE-ELECTRON INTEGRALS ......
 CPU     0: STEP CPU TIME=     0.00 TOTAL CPU TIME=         39.9 (      0.7 MIN)
 TOTAL WALL CLOCK TIME=         40.4 SECONDS, CPU UTILIZATION IS    98.95%
 TOTAL NUMBER OF NONZERO TWO-ELECTRON INTEGRALS =            18059267
       1208 INTEGRAL RECORDS WERE STORED ON DISK FILE  8.
  ...... END OF TWO-ELECTRON INTEGRALS .....
 CPU     0: STEP CPU TIME=     0.15 TOTAL CPU TIME=         40.1 (      0.7 MIN)
 TOTAL WALL CLOCK TIME=         40.5 SECONDS, CPU UTILIZATION IS    98.95%

          --------------------------
           R-B3LYPV3 SCF CALCULATION
          --------------------------
         DENSITY MATRIX CONVERGENCE THRESHOLD=  1.00E-06
     COARSE -> FINE DFT GRID SWITCH THRESHOLD=  3.00E-04 (SWITCH IN $DFT)
                   HF -> DFT SWITCH THRESHOLD=  5.00E-03 (SWOFF IN $DFT)

 ITER EX DEM     TOTAL ENERGY        E CHANGE  DENSITY CHANGE    DIIS ERROR
          * * *   INITIATING DIIS PROCEDURE   * * *
   1  0  0     -244.9751649012  -244.9751649012   0.003233662   0.002512489
   2  1  0     -244.9751988543    -0.0000339531   0.000397826   0.000475754
   3  2  0     -244.9751993072    -0.0000004529   0.000147149   0.000203044
   4  3  0     -244.9751993753    -0.0000000681   0.000045614   0.000122183
   5  4  0     -244.9751993989    -0.0000000237   0.000016302   0.000030884
   6  5  0     -244.9751994008    -0.0000000019   0.000005447   0.000006031
   7  6  0     -244.9751994010    -0.0000000002   0.000001419   0.000001531
   8  7  0     -244.9751994011    -0.0000000000   0.000000637   0.000000923

          -----------------
          DENSITY CONVERGED
          -----------------
     TIME TO FORM FOCK OPERATORS=       5.7 SECONDS (       0.7 SEC/ITER)
     TIME TO SOLVE SCF EQUATIONS=       0.1 SECONDS (       0.0 SEC/ITER)

 FINAL R-B3LYPV3 ENERGY IS     -244.9751994011 AFTER   8 ITERATIONS
 DFT EXCHANGE + CORRELATION ENERGY =       -24.5986613868
 TOTAL ELECTRON NUMBER             =        31.9999929871
 ...... END OF RHF CALCULATION ......
 CPU     0: STEP CPU TIME=     5.88 TOTAL CPU TIME=         46.0 (      0.8 MIN)
 TOTAL WALL CLOCK TIME=         46.4 SECONDS, CPU UTILIZATION IS    98.98%
 ..... END OF 1-ELECTRON GRADIENT ......
 CPU     0: STEP CPU TIME=     0.00 TOTAL CPU TIME=         46.0 (      0.8 MIN)
 TOTAL WALL CLOCK TIME=         46.5 SECONDS, CPU UTILIZATION IS    98.97%
 MEMORY FOR GRID POINT CONTRIBUTIONS TO THE DFT GRADIENT=    536665 WORDS.
 CPU     0: STEP CPU TIME=     1.19 TOTAL CPU TIME=         47.2 (      0.8 MIN)
 TOTAL WALL CLOCK TIME=         47.6 SECONDS, CPU UTILIZATION IS    98.98%
 ...... END OF 2-ELECTRON GRADIENT ......
 CPU     0: STEP CPU TIME=     0.28 TOTAL CPU TIME=         47.4 (      0.8 MIN)
 TOTAL WALL CLOCK TIME=         47.9 SECONDS, CPU UTILIZATION IS    98.98%

 UNITS ARE HARTREE/BOHR    E'X               E'Y               E'Z 
    1 C                0.000070058      -0.001016628       0.000000107
    2 N                0.000035001       0.002464075      -0.000001130
    3 O               -0.000075896      -0.000749613      -0.000077115
    4 O               -0.000076157      -0.000749575       0.000078097
    5 H                0.000405559       0.000050919      -0.000000026
    6 H               -0.000179295       0.000000417       0.000038816
    7 H               -0.000179269       0.000000405      -0.000038749
  $VIB   
          IVIB=   1 IATOM=   2 ICOORD=   2 E=     -244.9751994011
  7.005778873E-05-1.016627679E-03 1.067702027E-07 3.500057355E-05 2.464074623E-03
 -1.130228740E-06-7.589622093E-05-7.496128489E-04-7.711461585E-05-7.615691962E-05
 -7.495748126E-04 7.809712867E-05 4.055586729E-04 5.091929334E-05-2.634684511E-08
 -1.792948530E-04 4.165408302E-07 3.881634114E-05-1.792690416E-04 4.048834396E-07
 -3.874904858E-05
 -3.795236882E+00-1.016458147E-02 2.829404651E-05
1   ATOM  2
                                        -------------------
   COORD  3                             NUCLEAR COORDINATES
                                        -------------------
     VIB  1

                       ATOM             X              Y              Z

                 1  C               -0.004555      -0.026254      -0.000001
                 2  N                2.837088      -0.017590       0.010000
                 3  O                3.890375       0.015933       2.053331
                 4  O                3.890379       0.015891      -2.053332
                 5  H               -0.596276       1.947223       0.000016
                 6  H               -0.636362      -0.967589      -1.711520
                 7  H               -0.636360      -0.967615       1.711506
 ...... END OF ONE-ELECTRON INTEGRALS ......
 CPU     0: STEP CPU TIME=     0.00 TOTAL CPU TIME=         47.4 (      0.8 MIN)
 TOTAL WALL CLOCK TIME=         47.9 SECONDS, CPU UTILIZATION IS    98.98%
 TOTAL NUMBER OF NONZERO TWO-ELECTRON INTEGRALS =            18321111
       1227 INTEGRAL RECORDS WERE STORED ON DISK FILE  8.
  ...... END OF TWO-ELECTRON INTEGRALS .....
 CPU     0: STEP CPU TIME=     0.15 TOTAL CPU TIME=         47.6 (      0.8 MIN)
 TOTAL WALL CLOCK TIME=         48.1 SECONDS, CPU UTILIZATION IS    98.97%

          --------------------------
           R-B3LYPV3 SCF CALCULATION
          --------------------------
         DENSITY MATRIX CONVERGENCE THRESHOLD=  1.00E-06
     COARSE -> FINE DFT GRID SWITCH THRESHOLD=  3.00E-04 (SWITCH IN $DFT)
                   HF -> DFT SWITCH THRESHOLD=  5.00E-03 (SWOFF IN $DFT)

 ITER EX DEM     TOTAL ENERGY        E CHANGE  DENSITY CHANGE    DIIS ERROR
          * * *   INITIATING DIIS PROCEDURE   * * *
   1  0  0     -244.9751025128  -244.9751025128   0.002321900   0.003088419
   2  1  0     -244.9751500638    -0.0000475510   0.002230511   0.003336918
   3  2  0     -244.9751193652     0.0000306986   0.001615771   0.006033161
   4  3  0     -244.9751642184    -0.0000448532   0.000164276   0.000657110
   5  4  0     -244.9751647836    -0.0000005652   0.000008183   0.000011164
   6  5  0     -244.9751647840    -0.0000000004   0.000007183   0.000010251
   7  6  0     -244.9751647842    -0.0000000002   0.000002335   0.000005882
   8  7  0     -244.9751647843    -0.0000000001   0.000000425   0.000001162
   9  8  0     -244.9751647843    -0.0000000000   0.000000138   0.000000308

          -----------------
          DENSITY CONVERGED
          -----------------
     TIME TO FORM FOCK OPERATORS=       6.4 SECONDS (       0.7 SEC/ITER)
     TIME TO SOLVE SCF EQUATIONS=       0.1 SECONDS (       0.0 SEC/ITER)

 FINAL R-B3LYPV3 ENERGY IS     -244.9751647843 AFTER   9 ITERATIONS
 DFT EXCHANGE + CORRELATION ENERGY =       -24.5986055891
 TOTAL ELECTRON NUMBER             =        31.9999933837
 ...... END OF RHF CALCULATION ......
 CPU     0: STEP CPU TIME=     6.56 TOTAL CPU TIME=         54.1 (      0.9 MIN)
 TOTAL WALL CLOCK TIME=         54.8 SECONDS, CPU UTILIZATION IS    98.90%
 ..... END OF 1-ELECTRON GRADIENT ......
 CPU     0: STEP CPU TIME=     0.00 TOTAL CPU TIME=         54.2 (      0.9 MIN)
 TOTAL WALL CLOCK TIME=         54.8 SECONDS, CPU UTILIZATION IS    98.90%
 MEMORY FOR GRID POINT CONTRIBUTIONS TO THE DFT GRADIENT=    536665 WORDS.
 CPU     0: STEP CPU TIME=     1.18 TOTAL CPU TIME=         55.3 (      0.9 MIN)
 TOTAL WALL CLOCK TIME=         55.9 SECONDS, CPU UTILIZATION IS    98.91%
 ...... END OF 2-ELECTRON GRADIENT ......
 CPU     0: STEP CPU TIME=     0.28 TOTAL CPU TIME=         55.6 (      0.9 MIN)
 TOTAL WALL CLOCK TIME=         56.2 SECONDS, CPU UTILIZATION IS    98.92%

 UNITS ARE HARTREE/BOHR    E'X               E'Y               E'Z 
    1 C                0.000060112      -0.000012523      -0.000818288
    2 N                0.000071027      -0.000024337       0.009363475
    3 O               -0.001874208      -0.000052393      -0.004350097
    4 O                0.001723863       0.000066366      -0.004114281
    5 H               -0.000001685       0.000009855      -0.000018558
    6 H               -0.000304220       0.000009354      -0.000020641
    7 H                0.000325110       0.000003677      -0.000041611
  $VIB   
          IVIB=   1 IATOM=   2 ICOORD=   3 E=     -244.9751647843
  6.011240384E-05-1.252323567E-05-8.182876253E-04 7.102728362E-05-2.433678544E-05
  9.363474903E-03-1.874207683E-03-5.239266221E-05-4.350096699E-03 1.723863487E-03
  6.636559293E-05-4.114281146E-03-1.685027507E-06 9.855115030E-06-1.855756909E-05
 -3.042204834E-04 9.354477313E-06-2.064073450E-05 3.251100202E-04 3.677498037E-06
 -4.161112977E-05
 -3.794712903E+00-1.340722194E-02 4.708377460E-02
1   ATOM  3
                                        -------------------
   COORD  1                             NUCLEAR COORDINATES
                                        -------------------
     VIB  1

                       ATOM             X              Y              Z

                 1  C               -0.004555      -0.026254      -0.000001
                 2  N                2.837088      -0.017590      -0.000000
                 3  O                3.900375       0.015933       2.053331
                 4  O                3.890379       0.015891      -2.053332
                 5  H               -0.596276       1.947223       0.000016
                 6  H               -0.636362      -0.967589      -1.711520
                 7  H               -0.636360      -0.967615       1.711506
 ...... END OF ONE-ELECTRON INTEGRALS ......
 CPU     0: STEP CPU TIME=     0.00 TOTAL CPU TIME=         55.6 (      0.9 MIN)
 TOTAL WALL CLOCK TIME=         56.2 SECONDS, CPU UTILIZATION IS    98.92%
 TOTAL NUMBER OF NONZERO TWO-ELECTRON INTEGRALS =            18119387
       1212 INTEGRAL RECORDS WERE STORED ON DISK FILE  8.
  ...... END OF TWO-ELECTRON INTEGRALS .....
 CPU     0: STEP CPU TIME=     0.15 TOTAL CPU TIME=         55.8 (      0.9 MIN)
 TOTAL WALL CLOCK TIME=         56.4 SECONDS, CPU UTILIZATION IS    98.92%

          --------------------------
           R-B3LYPV3 SCF CALCULATION
          --------------------------
         DENSITY MATRIX CONVERGENCE THRESHOLD=  1.00E-06
     COARSE -> FINE DFT GRID SWITCH THRESHOLD=  3.00E-04 (SWITCH IN $DFT)
                   HF -> DFT SWITCH THRESHOLD=  5.00E-03 (SWOFF IN $DFT)

 ITER EX DEM     TOTAL ENERGY        E CHANGE  DENSITY CHANGE    DIIS ERROR
          * * *   INITIATING DIIS PROCEDURE   * * *
   1  0  0     -244.9751837969  -244.9751837969   0.001551584   0.001528175
   2  1  0     -244.9751997843    -0.0000159874   0.000501997   0.000356072
   3  2  0     -244.9751998378    -0.0000000535   0.000237154   0.000292301
   4  3  0     -244.9752000202    -0.0000001824   0.000116538   0.000362868
   5  4  0     -244.9752001829    -0.0000001627   0.000037801   0.000077774
   6  5  0     -244.9752001952    -0.0000000123   0.000009766   0.000023758
   7  6  0     -244.9752001960    -0.0000000008   0.000003122   0.000007366
   8  7  0     -244.9752001961    -0.0000000001   0.000001507   0.000001391
   9  8  0     -244.9752001961     0.0000000000   0.000000124   0.000000401

          -----------------
          DENSITY CONVERGED
          -----------------
     TIME TO FORM FOCK OPERATORS=       6.4 SECONDS (       0.7 SEC/ITER)
     TIME TO SOLVE SCF EQUATIONS=       0.1 SECONDS (       0.0 SEC/ITER)

 FINAL R-B3LYPV3 ENERGY IS     -244.9752001961 AFTER   9 ITERATIONS
 DFT EXCHANGE + CORRELATION ENERGY =       -24.5969506853
 TOTAL ELECTRON NUMBER             =        31.9999932811
 ...... END OF RHF CALCULATION ......
 CPU     0: STEP CPU TIME=     6.59 TOTAL CPU TIME=         62.4 (      1.0 MIN)
 TOTAL WALL CLOCK TIME=         63.0 SECONDS, CPU UTILIZATION IS    98.91%
 ..... END OF 1-ELECTRON GRADIENT ......
 CPU     0: STEP CPU TIME=     0.00 TOTAL CPU TIME=         62.4 (      1.0 MIN)
 TOTAL WALL CLOCK TIME=         63.0 SECONDS, CPU UTILIZATION IS    98.91%
 MEMORY FOR GRID POINT CONTRIBUTIONS TO THE DFT GRADIENT=    536665 WORDS.
 CPU     0: STEP CPU TIME=     1.18 TOTAL CPU TIME=         63.5 (      1.1 MIN)
 TOTAL WALL CLOCK TIME=         64.2 SECONDS, CPU UTILIZATION IS    98.90%
 ...... END OF 2-ELECTRON GRADIENT ......
 CPU     0: STEP CPU TIME=     0.28 TOTAL CPU TIME=         63.8 (      1.1 MIN)
 TOTAL WALL CLOCK TIME=         64.5 SECONDS, CPU UTILIZATION IS    98.90%

 UNITS ARE HARTREE/BOHR    E'X               E'Y               E'Z 
    1 C               -0.000219488      -0.000047980      -0.000467732
    2 N               -0.002509791      -0.000077959      -0.001777445
    3 O                0.002306154       0.000074406       0.002150154
    4 O                0.000488478       0.000018827       0.000138907
    5 H               -0.000012264       0.000005323      -0.000013455
    6 H               -0.000079500       0.000022709       0.000002535
    7 H                0.000026412       0.000004673      -0.000032964
  $VIB   
          IVIB=   1 IATOM=   3 ICOORD=   1 E=     -244.9752001961
 -2.194884887E-04-4.797972666E-05-4.677319770E-04-2.509791035E-03-7.795907399E-05
 -1.777444931E-03 2.306153595E-03 7.440644639E-05 2.150154110E-03 4.884781693E-04
  1.882723056E-05 1.389072363E-04-1.226435260E-05 5.323032779E-06-1.345508245E-05
 -7.949983240E-05 2.270873415E-05 2.534579306E-06 2.641194407E-05 4.673356772E-06
 -3.296393522E-05
 -3.809798468E+00-1.351573698E-02-9.853786280E-03
1   ATOM  3
                                        -------------------
   COORD  2                             NUCLEAR COORDINATES
                                        -------------------
     VIB  1

                       ATOM             X              Y              Z

                 1  C               -0.004555      -0.026254      -0.000001
                 2  N                2.837088      -0.017590      -0.000000
                 3  O                3.890375       0.025933       2.053331
                 4  O                3.890379       0.015891      -2.053332
                 5  H               -0.596276       1.947223       0.000016
                 6  H               -0.636362      -0.967589      -1.711520
                 7  H               -0.636360      -0.967615       1.711506
 ...... END OF ONE-ELECTRON INTEGRALS ......
 CPU     0: STEP CPU TIME=     0.00 TOTAL CPU TIME=         63.8 (      1.1 MIN)
 TOTAL WALL CLOCK TIME=         64.5 SECONDS, CPU UTILIZATION IS    98.90%
 TOTAL NUMBER OF NONZERO TWO-ELECTRON INTEGRALS =            18125813
       1214 INTEGRAL RECORDS WERE STORED ON DISK FILE  8.
  ...... END OF TWO-ELECTRON INTEGRALS .....
 CPU     0: STEP CPU TIME=     0.15 TOTAL CPU TIME=         64.0 (      1.1 MIN)
 TOTAL WALL CLOCK TIME=         64.7 SECONDS, CPU UTILIZATION IS    98.90%

          --------------------------
           R-B3LYPV3 SCF CALCULATION
          --------------------------
         DENSITY MATRIX CONVERGENCE THRESHOLD=  1.00E-06
     COARSE -> FINE DFT GRID SWITCH THRESHOLD=  3.00E-04 (SWITCH IN $DFT)
                   HF -> DFT SWITCH THRESHOLD=  5.00E-03 (SWOFF IN $DFT)

 ITER EX DEM     TOTAL ENERGY        E CHANGE  DENSITY CHANGE    DIIS ERROR
          * * *   INITIATING DIIS PROCEDURE   * * *
   1  0  0     -244.9751929610  -244.9751929610   0.001592034   0.001217392
   2  1  0     -244.9752098622    -0.0000169012   0.000303626   0.000229727
   3  2  0     -244.9752100802    -0.0000002180   0.000150907   0.000229117
   4  3  0     -244.9752100365     0.0000000437   0.000086739   0.000326818
   5  4  0     -244.9752101729    -0.0000001364   0.000015212   0.000022251
   6  5  0     -244.9752101742    -0.0000000014   0.000008412   0.000022198
   7  6  0     -244.9752101751    -0.0000000009   0.000001794   0.000002003
   8  7  0     -244.9752101751    -0.0000000000   0.000000792   0.000000648

          -----------------
          DENSITY CONVERGED
          -----------------
     TIME TO FORM FOCK OPERATORS=       5.7 SECONDS (       0.7 SEC/ITER)
     TIME TO SOLVE SCF EQUATIONS=       0.1 SECONDS (       0.0 SEC/ITER)

 FINAL R-B3LYPV3 ENERGY IS     -244.9752101751 AFTER   8 ITERATIONS
 DFT EXCHANGE + CORRELATION ENERGY =       -24.5985107513
 TOTAL ELECTRON NUMBER             =        31.9999934486
 ...... END OF RHF CALCULATION ......
 CPU     0: STEP CPU TIME=     5.82 TOTAL CPU TIME=         69.8 (      1.2 MIN)
 TOTAL WALL CLOCK TIME=         70.6 SECONDS, CPU UTILIZATION IS    98.85%
 ..... END OF 1-ELECTRON GRADIENT ......
 CPU     0: STEP CPU TIME=     0.00 TOTAL CPU TIME=         69.8 (      1.2 MIN)
 TOTAL WALL CLOCK TIME=         70.6 SECONDS, CPU UTILIZATION IS    98.85%
 MEMORY FOR GRID POINT CONTRIBUTIONS TO THE DFT GRADIENT=    536665 WORDS.
 CPU     0: STEP CPU TIME=     1.19 TOTAL CPU TIME=         71.0 (      1.2 MIN)
 TOTAL WALL CLOCK TIME=         71.8 SECONDS, CPU UTILIZATION IS    98.86%
 ...... END OF 2-ELECTRON GRADIENT ......
 CPU     0: STEP CPU TIME=     0.28 TOTAL CPU TIME=         71.3 (      1.2 MIN)
 TOTAL WALL CLOCK TIME=         72.1 SECONDS, CPU UTILIZATION IS    98.86%

 UNITS ARE HARTREE/BOHR    E'X               E'Y               E'Z 
    1 C                0.000041488       0.000209836       0.000013759
    2 N               -0.000077128      -0.000786074      -0.000067831
    3 O                0.000044050       0.000273012       0.000041093
    4 O               -0.000017731       0.000269736       0.000038192
    5 H               -0.000045521       0.000008849      -0.000011832
    6 H                0.000026060       0.000016503       0.000001973
    7 H                0.000028782       0.000008138      -0.000015354
  $VIB   
          IVIB=   1 IATOM=   3 ICOORD=   2 E=     -244.9752101751
  4.148815927E-05 2.098363563E-04 1.375944615E-05-7.712816083E-05-7.860735564E-04
 -6.783071477E-05 4.404967759E-05 2.730123828E-04 4.109306020E-05-1.773101380E-05
  2.697356564E-04 3.819194094E-05-4.552105725E-05 8.848573115E-06-1.183242762E-05
  2.605989581E-05 1.650260312E-05 1.973115326E-06 2.878249923E-05 8.137984650E-06
 -1.535442023E-05
 -3.794750272E+00-1.941564141E-02-3.964864039E-04
1   ATOM  3
                                        -------------------
   COORD  3                             NUCLEAR COORDINATES
                                        -------------------
     VIB  1

                       ATOM             X              Y              Z

                 1  C               -0.004555      -0.026254      -0.000001
                 2  N                2.837088      -0.017590      -0.000000
                 3  O                3.890375       0.015933       2.063331
                 4  O                3.890379       0.015891      -2.053332
                 5  H               -0.596276       1.947223       0.000016
                 6  H               -0.636362      -0.967589      -1.711520
                 7  H               -0.636360      -0.967615       1.711506
 ...... END OF ONE-ELECTRON INTEGRALS ......
 CPU     0: STEP CPU TIME=     0.00 TOTAL CPU TIME=         71.3 (      1.2 MIN)
 TOTAL WALL CLOCK TIME=         72.1 SECONDS, CPU UTILIZATION IS    98.86%
 TOTAL NUMBER OF NONZERO TWO-ELECTRON INTEGRALS =            18067631
       1208 INTEGRAL RECORDS WERE STORED ON DISK FILE  8.
  ...... END OF TWO-ELECTRON INTEGRALS .....
 CPU     0: STEP CPU TIME=     0.15 TOTAL CPU TIME=         71.4 (      1.2 MIN)
 TOTAL WALL CLOCK TIME=         72.2 SECONDS, CPU UTILIZATION IS    98.86%

          --------------------------
           R-B3LYPV3 SCF CALCULATION
          --------------------------
         DENSITY MATRIX CONVERGENCE THRESHOLD=  1.00E-06
     COARSE -> FINE DFT GRID SWITCH THRESHOLD=  3.00E-04 (SWITCH IN $DFT)
                   HF -> DFT SWITCH THRESHOLD=  5.00E-03 (SWOFF IN $DFT)

 ITER EX DEM     TOTAL ENERGY        E CHANGE  DENSITY CHANGE    DIIS ERROR
          * * *   INITIATING DIIS PROCEDURE   * * *
   1  0  0     -244.9751604668  -244.9751604668   0.002166231   0.001522334
   2  1  0     -244.9751811118    -0.0000206450   0.001095000   0.001181309
   3  2  0     -244.9751740016     0.0000071102   0.000880221   0.002675300
   4  3  0     -244.9751835729    -0.0000095712   0.000237139   0.000676749
   5  4  0     -244.9751842618    -0.0000006890   0.000060071   0.000175641
   6  5  0     -244.9751842993    -0.0000000375   0.000021817   0.000040914
   7  6  0     -244.9751843032    -0.0000000039   0.000006219   0.000008110
   8  7  0     -244.9751843034    -0.0000000002   0.000002098   0.000002920
   9  8  0     -244.9751843034    -0.0000000000   0.000000191   0.000000741
  10  9  0     -244.9751843034    -0.0000000000   0.000000013   0.000000027

          -----------------
          DENSITY CONVERGED
          -----------------
     TIME TO FORM FOCK OPERATORS=       7.2 SECONDS (       0.7 SEC/ITER)
     TIME TO SOLVE SCF EQUATIONS=       0.1 SECONDS (       0.0 SEC/ITER)

 FINAL R-B3LYPV3 ENERGY IS     -244.9751843034 AFTER  10 ITERATIONS
 DFT EXCHANGE + CORRELATION ENERGY =       -24.5953401924
 TOTAL ELECTRON NUMBER             =        31.9999933548
 ...... END OF RHF CALCULATION ......
 CPU     0: STEP CPU TIME=     7.35 TOTAL CPU TIME=         78.8 (      1.3 MIN)
 TOTAL WALL CLOCK TIME=         79.6 SECONDS, CPU UTILIZATION IS    98.94%
 ..... END OF 1-ELECTRON GRADIENT ......
 CPU     0: STEP CPU TIME=     0.00 TOTAL CPU TIME=         78.8 (      1.3 MIN)
 TOTAL WALL CLOCK TIME=         79.6 SECONDS, CPU UTILIZATION IS    98.94%
 MEMORY FOR GRID POINT CONTRIBUTIONS TO THE DFT GRADIENT=    536665 WORDS.
 CPU     0: STEP CPU TIME=     1.18 TOTAL CPU TIME=         80.0 (      1.3 MIN)
 TOTAL WALL CLOCK TIME=         80.8 SECONDS, CPU UTILIZATION IS    98.95%
 ...... END OF 2-ELECTRON GRADIENT ......
 CPU     0: STEP CPU TIME=     0.28 TOTAL CPU TIME=         80.2 (      1.3 MIN)
 TOTAL WALL CLOCK TIME=         81.1 SECONDS, CPU UTILIZATION IS    98.95%

 UNITS ARE HARTREE/BOHR    E'X               E'Y               E'Z 
    1 C               -0.000158634      -0.000011066      -0.000126662
    2 N               -0.001832410      -0.000074040      -0.004148823
    3 O                0.002129101       0.000071549       0.005462266
    4 O               -0.000132472       0.000002841      -0.001225412
    5 H               -0.000000327       0.000002200      -0.000003122
    6 H               -0.000009406       0.000017233       0.000033281
    7 H                0.000004147      -0.000008717       0.000008472
  $VIB   
          IVIB=   1 IATOM=   3 ICOORD=   3 E=     -244.9751843034
 -1.586340926E-04-1.106621647E-05-1.266622502E-04-1.832409914E-03-7.403967172E-05
 -4.148822709E-03 2.129101222E-03 7.154860681E-05 5.462266334E-03-1.324715714E-04
  2.840880530E-06-1.225411694E-03-3.273536504E-07 2.200286215E-06-3.122011950E-06
 -9.405770653E-06 1.723283931E-05 3.328061951E-05 4.147480637E-06-8.716724678E-06
  8.471712036E-06
 -3.797327773E+00-1.336192040E-02-2.709473009E-02
1   ATOM  4
                                        -------------------
   COORD  1                             NUCLEAR COORDINATES
                                        -------------------
     VIB  1

                       ATOM             X              Y              Z

                 1  C               -0.004555      -0.026254      -0.000001
                 2  N                2.837088      -0.017590      -0.000000
                 3  O                3.890375       0.015933       2.053331
                 4  O                3.900379       0.015891      -2.053332
                 5  H               -0.596276       1.947223       0.000016
                 6  H               -0.636362      -0.967589      -1.711520
                 7  H               -0.636360      -0.967615       1.711506
 ...... END OF ONE-ELECTRON INTEGRALS ......
 CPU     0: STEP CPU TIME=     0.00 TOTAL CPU TIME=         80.2 (      1.3 MIN)
 TOTAL WALL CLOCK TIME=         81.1 SECONDS, CPU UTILIZATION IS    98.95%
 TOTAL NUMBER OF NONZERO TWO-ELECTRON INTEGRALS =            18119365
       1212 INTEGRAL RECORDS WERE STORED ON DISK FILE  8.
  ...... END OF TWO-ELECTRON INTEGRALS .....
 CPU     0: STEP CPU TIME=     0.15 TOTAL CPU TIME=         80.4 (      1.3 MIN)
 TOTAL WALL CLOCK TIME=         81.2 SECONDS, CPU UTILIZATION IS    98.95%

          --------------------------
           R-B3LYPV3 SCF CALCULATION
          --------------------------
         DENSITY MATRIX CONVERGENCE THRESHOLD=  1.00E-06
     COARSE -> FINE DFT GRID SWITCH THRESHOLD=  3.00E-04 (SWITCH IN $DFT)
                   HF -> DFT SWITCH THRESHOLD=  5.00E-03 (SWOFF IN $DFT)

 ITER EX DEM     TOTAL ENERGY        E CHANGE  DENSITY CHANGE    DIIS ERROR
          * * *   INITIATING DIIS PROCEDURE   * * *
   1  0  0     -244.9751837974  -244.9751837974   0.001565903   0.001528193
   2  1  0     -244.9751997830    -0.0000159856   0.000502172   0.000356069
   3  2  0     -244.9751998360    -0.0000000529   0.000237029   0.000293113
   4  3  0     -244.9752000180    -0.0000001820   0.000116665   0.000363607
   5  4  0     -244.9752001816    -0.0000001636   0.000037844   0.000077568
   6  5  0     -244.9752001938    -0.0000000123   0.000009767   0.000023761
   7  6  0     -244.9752001947    -0.0000000009   0.000003117   0.000007367
   8  7  0     -244.9752001948    -0.0000000001   0.000001507   0.000001391
   9  8  0     -244.9752001948    -0.0000000000   0.000000124   0.000000401

          -----------------
          DENSITY CONVERGED
          -----------------
     TIME TO FORM FOCK OPERATORS=       6.5 SECONDS (       0.7 SEC/ITER)
     TIME TO SOLVE SCF EQUATIONS=       0.1 SECONDS (       0.0 SEC/ITER)

 FINAL R-B3LYPV3 ENERGY IS     -244.9752001948 AFTER   9 ITERATIONS
 DFT EXCHANGE + CORRELATION ENERGY =       -24.5969507497
 TOTAL ELECTRON NUMBER             =        31.9999932809
 ...... END OF RHF CALCULATION ......
 CPU     0: STEP CPU TIME=     6.62 TOTAL CPU TIME=         87.0 (      1.4 MIN)
 TOTAL WALL CLOCK TIME=         87.9 SECONDS, CPU UTILIZATION IS    98.98%
 ..... END OF 1-ELECTRON GRADIENT ......
 CPU     0: STEP CPU TIME=     0.00 TOTAL CPU TIME=         87.0 (      1.5 MIN)
 TOTAL WALL CLOCK TIME=         87.9 SECONDS, CPU UTILIZATION IS    98.98%
 MEMORY FOR GRID POINT CONTRIBUTIONS TO THE DFT GRADIENT=    536665 WORDS.
 CPU     0: STEP CPU TIME=     1.18 TOTAL CPU TIME=         88.2 (      1.5 MIN)
 TOTAL WALL CLOCK TIME=         89.1 SECONDS, CPU UTILIZATION IS    98.99%
 ...... END OF 2-ELECTRON GRADIENT ......
 CPU     0: STEP CPU TIME=     0.30 TOTAL CPU TIME=         88.5 (      1.5 MIN)
 TOTAL WALL CLOCK TIME=         89.4 SECONDS, CPU UTILIZATION IS    98.98%

 UNITS ARE HARTREE/BOHR    E'X               E'Y               E'Z 
    1 C               -0.000219487      -0.000047971       0.000467771
    2 N               -0.002509766      -0.000077899       0.001777412
    3 O                0.000488518       0.000018788      -0.000138857
    4 O                0.002306084       0.000074376      -0.002150083
    5 H               -0.000012272       0.000005323       0.000013379
    6 H                0.000026352       0.000004672       0.000032938
    7 H               -0.000079430       0.000022710      -0.000002559
  $VIB   
          IVIB=   1 IATOM=   4 ICOORD=   1 E=     -244.9752001948
 -2.194867629E-04-4.797086786E-05 4.677708514E-04-2.509765776E-03-7.789925432E-05
  1.777411927E-03 4.885180107E-04 1.878820720E-05-1.388567793E-04 2.306083703E-03
  7.437644896E-05-2.150083478E-03-1.227156515E-05 5.323377249E-06 1.337851596E-05
  2.635217129E-05 4.671665864E-06 3.293763338E-05-7.942978105E-05 2.271042291E-05
 -2.558670268E-06
 -3.809799891E+00-1.351570525E-02 9.870281462E-03
1   ATOM  4
                                        -------------------
   COORD  2                             NUCLEAR COORDINATES
                                        -------------------
     VIB  1

                       ATOM             X              Y              Z

                 1  C               -0.004555      -0.026254      -0.000001
                 2  N                2.837088      -0.017590      -0.000000
                 3  O                3.890375       0.015933       2.053331
                 4  O                3.890379       0.025891      -2.053332
                 5  H               -0.596276       1.947223       0.000016
                 6  H               -0.636362      -0.967589      -1.711520
                 7  H               -0.636360      -0.967615       1.711506
 ...... END OF ONE-ELECTRON INTEGRALS ......
 CPU     0: STEP CPU TIME=     0.00 TOTAL CPU TIME=         88.5 (      1.5 MIN)
 TOTAL WALL CLOCK TIME=         89.4 SECONDS, CPU UTILIZATION IS    98.98%
 TOTAL NUMBER OF NONZERO TWO-ELECTRON INTEGRALS =            18125622
       1213 INTEGRAL RECORDS WERE STORED ON DISK FILE  8.
  ...... END OF TWO-ELECTRON INTEGRALS .....
 CPU     0: STEP CPU TIME=     0.15 TOTAL CPU TIME=         88.6 (      1.5 MIN)
 TOTAL WALL CLOCK TIME=         89.6 SECONDS, CPU UTILIZATION IS    98.97%

          --------------------------
           R-B3LYPV3 SCF CALCULATION
          --------------------------
         DENSITY MATRIX CONVERGENCE THRESHOLD=  1.00E-06
     COARSE -> FINE DFT GRID SWITCH THRESHOLD=  3.00E-04 (SWITCH IN $DFT)
                   HF -> DFT SWITCH THRESHOLD=  5.00E-03 (SWOFF IN $DFT)

 ITER EX DEM     TOTAL ENERGY        E CHANGE  DENSITY CHANGE    DIIS ERROR
          * * *   INITIATING DIIS PROCEDURE   * * *
   1  0  0     -244.9751929608  -244.9751929608   0.001577767   0.001217402
   2  1  0     -244.9752098616    -0.0000169008   0.000303545   0.000229713
   3  2  0     -244.9752100793    -0.0000002177   0.000150949   0.000229235
   4  3  0     -244.9752100359     0.0000000434   0.000086748   0.000326878
   5  4  0     -244.9752101722    -0.0000001363   0.000015217   0.000022254
   6  5  0     -244.9752101735    -0.0000000014   0.000008412   0.000022196
   7  6  0     -244.9752101744    -0.0000000009   0.000001794   0.000002004
   8  7  0     -244.9752101744    -0.0000000000   0.000000792   0.000000648

          -----------------
          DENSITY CONVERGED
          -----------------
     TIME TO FORM FOCK OPERATORS=       5.8 SECONDS (       0.7 SEC/ITER)
     TIME TO SOLVE SCF EQUATIONS=       0.1 SECONDS (       0.0 SEC/ITER)

 FINAL R-B3LYPV3 ENERGY IS     -244.9752101744 AFTER   8 ITERATIONS
 DFT EXCHANGE + CORRELATION ENERGY =       -24.5985108261
 TOTAL ELECTRON NUMBER             =        31.9999934487
 ...... END OF RHF CALCULATION ......
 CPU     0: STEP CPU TIME=     5.89 TOTAL CPU TIME=         94.5 (      1.6 MIN)
 TOTAL WALL CLOCK TIME=         95.5 SECONDS, CPU UTILIZATION IS    99.02%
 ..... END OF 1-ELECTRON GRADIENT ......
 CPU     0: STEP CPU TIME=     0.00 TOTAL CPU TIME=         94.5 (      1.6 MIN)
 TOTAL WALL CLOCK TIME=         95.5 SECONDS, CPU UTILIZATION IS    99.02%
 MEMORY FOR GRID POINT CONTRIBUTIONS TO THE DFT GRADIENT=    536665 WORDS.
 CPU     0: STEP CPU TIME=     1.18 TOTAL CPU TIME=         95.7 (      1.6 MIN)
 TOTAL WALL CLOCK TIME=         96.7 SECONDS, CPU UTILIZATION IS    99.02%
 ...... END OF 2-ELECTRON GRADIENT ......
 CPU     0: STEP CPU TIME=     0.28 TOTAL CPU TIME=         96.0 (      1.6 MIN)
 TOTAL WALL CLOCK TIME=         96.9 SECONDS, CPU UTILIZATION IS    99.02%

 UNITS ARE HARTREE/BOHR    E'X               E'Y               E'Z 
    1 C                0.000041505       0.000209845      -0.000013728
[...]
     N          D/DX     5.282265641    0.002864637    0.000005727
                D/DY    -0.092323680    0.615245396    0.003841759
                D/DZ    -0.000012570    0.000091627    8.895974232
     O          D/DX    -2.844611884   -0.019653442   -1.860890363
                D/DY     0.004834490   -1.133922108   -0.066782901
                D/DZ    -0.490081391    0.009623539   -5.138089454
     O          D/DX    -2.844879037   -0.019646091    1.860896192
                D/DY     0.004743953   -1.133835084    0.066703352
                D/DZ     0.490085508   -0.009708358   -5.138104836
     H          D/DX     0.214274822   -0.154626242    0.000880643
                D/DY     0.050400543   -0.061653025   -0.000119861
                D/DZ    -0.000004871   -0.000000460    0.508174961
     H          D/DX     0.139064289    0.035334488    0.106085924
                D/DY    -0.197871547    0.396214925   -0.219220083
                D/DZ    -0.115748697   -0.249248755    0.104300872
     H          D/DX     0.139077662    0.035326272   -0.106102991
                D/DY    -0.197876683    0.396200361    0.219197836
                D/DZ     0.115740709    0.249284069    0.104313285

          --------------------------------------------------------
          NORMAL COORDINATE ANALYSIS IN THE HARMONIC APPROXIMATION
          --------------------------------------------------------

          ATOMIC WEIGHTS (AMU)

    1     C                12.00000
    2     N                14.00307
    3     O                15.99491
    4     O                15.99491
    5     H                 1.00782
    6     H                 1.00782
    7     H                 1.00782

 MODE(S)     1 TO     1 TREATED AS IMAGINARY.

 MODES    2 TO    7 ARE TAKEN AS ROTATIONS AND TRANSLATIONS.

 ANALYZING SYMMETRY OF NORMAL MODES...

     FREQUENCIES IN CM**-1, IR INTENSITIES IN DEBYE**2/AMU-ANGSTROM**2,
     REDUCED MASSES IN AMU.

                            1           2           3           4           5
       FREQUENCY:        15.89 I      7.11        6.39        0.14        0.06  
        SYMMETRY:         A           A           A           A           A   
    REDUCED MASS:      1.18178     5.23588     3.60748     8.67962     8.55848
    IR INTENSITY:      0.04069     0.08857     0.29837     0.00001     0.00004

  1   C            X  0.00021214 -0.00008758 -0.00193764  0.11257319  0.01274717
                   Y -0.00056893 -0.00155806  0.20142192 -0.00816490  0.12941926
                   Z  0.06989043  0.10719879  0.00117326 -0.06147088  0.00678312
  2   N            X  0.00020932 -0.00009229 -0.00122707  0.11257274  0.01275542
                   Y  0.00020601 -0.00021892 -0.01504175 -0.00797769  0.12703020
                   Z -0.00964664 -0.01062854 -0.00008821 -0.06033060  0.00695075
  3   O            X  0.04215405  0.08643176  0.00218048  0.11178799  0.01262490
                   Y -0.01924176  0.10963051 -0.09499461 -0.01103144  0.12763560
                   Z -0.03048438 -0.05683438 -0.00053185 -0.05988228  0.00700309
  4   O            X -0.04175373 -0.08664838  0.00040671  0.11335325  0.01293481
                   Y  0.02021946 -0.10906542 -0.09537408 -0.00477859  0.12465392
                   Z -0.03048478 -0.05683218 -0.00054675 -0.05988257  0.00700272
  5   H            X -0.00032674 -0.00101598  0.14856793  0.11244556  0.01440336
                   Y -0.00073525 -0.00183517  0.24652739 -0.00820240  0.12991830
                   Z  0.62728588 -0.02923996  0.00172885 -0.05958556  0.00658217
  6   H            X -0.05970970 -0.06898089 -0.07442419  0.11333164  0.01203154
                   Y  0.44085754 -0.13840029  0.24979460 -0.00632084  0.12974050
                   Z -0.14881345  0.20767628  0.00132888 -0.06276886  0.00687404
  7   H            X  0.06064892  0.06968987 -0.07288199  0.11193392  0.01187882
                   Y -0.44233897  0.13469042  0.24933885 -0.01008872  0.13015706
                   Z -0.14882050  0.20767865  0.00134139 -0.06276784  0.00687378

 TRANS. SAYVETZ    X  0.01249718 -0.00611736  0.00221908  6.86870987  0.77901983
                   Y  0.00946191 -0.01831205 -0.08700228 -0.48737557  7.76005816
                   Z  0.06063780 -0.29139671  0.00002524 -3.68466287  0.42323995
               TOTAL  0.06263106  0.29203561  0.08703058  7.80983039  7.81053818

   ROT. SAYVETZ    X  4.30559774 -8.17635502 -0.01150970  0.21866203 -0.09913993
                   Y  7.49163285 12.89877993  0.13442404 -0.12166727 -0.01957360
                   Z  0.04682560  0.08135748-13.12821837  0.01146079 -0.14491113
               TOTAL  8.64088695 15.27212899 13.12891161  0.25049423  0.17666659

                            6           7           8           9          10
       FREQUENCY:         0.25        7.51      482.10      612.07      660.61  
        SYMMETRY:         A           A           A           A           A   
    REDUCED MASS:      8.63929     5.06940     3.37132     3.53646     6.00663
    IR INTENSITY:      0.00001     0.03910     0.02108     0.11367     0.37704

  1   C            X  0.05961161  0.00061330 -0.00000509 -0.06565971  0.18244876
                   Y -0.01242488  0.00005553  0.00000016 -0.00320412 -0.00275405
                   Z  0.11375483  0.07965284  0.11796857  0.00000746  0.00000784
  2   N            X  0.05961063  0.00061161  0.00000414 -0.00826972  0.01710081
                   Y -0.01214615  0.00070352 -0.00001773  0.19052514  0.07101897
                   Z  0.11246172  0.00098255 -0.08498360 -0.00000352  0.00000036
  3   O            X  0.06043611  0.06822534 -0.12008971  0.03455137 -0.09129344
                   Y -0.00480479 -0.13626077 -0.00475917 -0.07032894 -0.02667662
                   Z  0.11191939 -0.03169945 -0.02660970 -0.01900781  0.06477606
  4   O            X  0.05877924 -0.06701687  0.12010478  0.03456936 -0.09127326
                   Y -0.01927625  0.13813357  0.00478566 -0.07033683 -0.02667957
                   Z  0.11191954 -0.03170228 -0.02660570  0.01900284 -0.06478483
  5   H            X  0.05941972  0.00015912  0.00000500 -0.40114230  0.05231568
                   Y -0.01248214 -0.00007896  0.00000316 -0.10718930 -0.04120659
                   Z  0.11010812 -0.11833898  0.16392183  0.00000708  0.00000907
  6   H            X  0.05887457 -0.03875775 -0.23404649  0.10044815  0.21757936
                   Y -0.01603199 -0.16790918 -0.04683610 -0.13472274 -0.03302548
                   Z  0.11602149  0.18526312  0.22844095  0.00964555  0.00538201
  7   H            X  0.06053049  0.04041806  0.23402259  0.10048752  0.21761381
                   Y -0.00893929  0.16772745  0.04684132 -0.13470992 -0.03301447
                   Z  0.11602217  0.18526538  0.22844025 -0.00961233 -0.00534971

 TRANS. SAYVETZ    X  3.63713401  0.03708720  0.00021873  0.00008858  0.00003463
                   Y -0.74210254  0.04021022  0.00018571 -0.00001794 -0.00007821
                   Z  6.86497997  0.20965080  0.00007685  0.00000136  0.00000055
               TOTAL  7.80431996  0.21666975  0.00029705  0.00009039  0.00008554

   ROT. SAYVETZ    X -0.49976204  7.79805137 -0.00173042 -0.00031459 -0.00008978
                   Y  0.13588972  9.21286007  0.00449535 -0.00005252 -0.00004386
                   Z  0.01698215  0.03901003  0.00049461 -0.00363643 -0.00136403
               TOTAL  0.51818578 12.07012501  0.00484222  0.00365039  0.00136768

                           11          12          13          14          15
       FREQUENCY:       924.81     1110.31     1132.99     1397.82     1425.99  
        SYMMETRY:         A           A           A           A           A   
    REDUCED MASS:     10.32927     1.39385     1.54338     1.88574     2.44871
    IR INTENSITY:      0.30191     0.30818     0.01935     1.49161     0.97661

  1   C            X -0.11876562  0.00000355 -0.00700765 -0.10304744  0.05088209
                   Y  0.00191094  0.00002666 -0.12277635  0.00983336  0.00438097
                   Z -0.00000123 -0.13428072 -0.00002978 -0.00000140  0.00000330
  2   N            X  0.13111674 -0.00000039  0.00256056  0.11511946  0.15311933
                   Y -0.00376104 -0.00002529  0.11383177  0.00577122  0.00317801
                   Z -0.00000294 -0.00151057  0.00002109  0.00000968 -0.00001083
  3   O            X -0.00335786  0.03570665  0.00127205 -0.04688767 -0.05516966
                   Y  0.00132402 -0.00011463 -0.02016130 -0.00185649 -0.00145574
                   Z  0.13213951  0.03675659 -0.00139516 -0.06034104 -0.07388311
  4   O            X -0.00336177 -0.03570781  0.00127135 -0.04688287 -0.05517454
                   Y  0.00132109  0.00012498 -0.02016092 -0.00185527 -0.00145432
                   Z -0.13213553  0.03675720  0.00139100  0.06033279  0.07389246
  5   H            X -0.09360268 -0.00012760  0.57630175  0.40820939 -0.30730362
                   Y  0.00805119 -0.00001726  0.06100492  0.15228717 -0.10243911
                   Z -0.00000110  0.22479883  0.00005919  0.00001097 -0.00002868
  6   H            X -0.10371015 -0.54931375 -0.28454549  0.35373037 -0.33740158
                   Y -0.01027042 -0.08346154  0.22958797 -0.14534366  0.02613679
                   Z -0.00094795  0.11419524 -0.08929124 -0.07836858  0.12516342
  7   H            X -0.10371127  0.54944023 -0.28427348  0.35373570 -0.33739584
                   Y -0.01027258  0.08336150  0.22963274 -0.14533334  0.02610885
                   Z  0.00094414  0.11415850  0.08935957  0.07837120 -0.12517155

 TRANS. SAYVETZ    X -0.00001015  0.00001760 -0.00001335  0.00001076 -0.00000572
                   Y -0.00001615  0.00001305  0.00002409 -0.00002701 -0.00005899
                   Z  0.00000280  0.00002360 -0.00000004  0.00000035  0.00000029
               TOTAL  0.00001928  0.00003220  0.00002754  0.00002907  0.00005926

   ROT. SAYVETZ    X  0.00000012 -0.00002362 -0.00001357 -0.00001014  0.00000593
                   Y  0.00000670  0.00049432  0.00000383 -0.00001133 -0.00000703
                   Z  0.00146106  0.00004277  0.00077956  0.00131490 -0.00000091
               TOTAL  0.00146108  0.00049673  0.00077969  0.00131499  0.00000925

                           16          17          18          19          20
       FREQUENCY:      1463.29     1475.54     1619.55     3071.49     3162.32  
        SYMMETRY:         A           A           A           A           A   
    REDUCED MASS:      1.07666     1.06425     8.49935     1.03002     1.10343
    IR INTENSITY:      1.17027     0.32491     8.14474     0.01734     0.04548

  1   C            X  0.00000441 -0.01413636 -0.00000186  0.04117526 -0.00917956
                   Y  0.00000970 -0.05015537  0.00001169 -0.01627722 -0.08830328
                   Z -0.05673575 -0.00000610 -0.01550029 -0.00000105  0.00000004
  2   N            X  0.00000131  0.02765001  0.00000384  0.00013975  0.00082929
                   Y -0.00000041 -0.02189692 -0.00001958  0.00002026  0.00007055
                   Z  0.03229339 -0.00001240  0.21586724  0.00000069  0.00000025
  3   O            X -0.01104886 -0.00933083 -0.04019284 -0.00021403  0.00002025
                   Y -0.00137091  0.00254874 -0.00123957 -0.00005587 -0.00009139
                   Z -0.01940144 -0.01182567 -0.08659346 -0.00023989 -0.00013854
  4   O            X  0.01104837 -0.00933471  0.04019143 -0.00021385  0.00002032
                   Y  0.00137040  0.00254923  0.00124098 -0.00005587 -0.00009139
                   Z -0.01940062  0.01183412 -0.08659173  0.00023935  0.00013834
  5   H            X  0.00000771 -0.33888221 -0.00011501 -0.19190235 -0.19106188
                   Y  0.00000184 -0.12834248 -0.00002378  0.66310733  0.63836668
                   Z  0.69517244  0.00008963 -0.08513665  0.00000523  0.00000549
  6   H            X  0.26515076  0.20967371 -0.13906111 -0.14676079  0.14409554
                   Y -0.38001784  0.47438634  0.05695015 -0.23390645  0.20747381
                   Z  0.07380059 -0.36456605  0.00946149 -0.41221293  0.40418682
  7   H            X -0.26523701  0.20958210  0.13906923 -0.14676350  0.14409840
                   Y  0.37990068  0.47448008 -0.05689881 -0.23391835  0.20748467
                   Z  0.07369961  0.36458685  0.00947854  0.41221952 -0.40419304

 TRANS. SAYVETZ    X -0.00001586 -0.00000226 -0.00009871 -0.00000885 -0.00000125
                   Y -0.00001354 -0.00000231 -0.00008350 -0.00001979 -0.00000763
                   Z  0.00000877 -0.00000044  0.00000442  0.00000027 -0.00000002
               TOTAL  0.00002262  0.00000326  0.00012937  0.00002168  0.00000773

   ROT. SAYVETZ    X -0.00030073  0.00000800 -0.00006503 -0.00000025  0.00000036
                   Y  0.00022929 -0.00000763  0.00055151  0.00000162  0.00000052
                   Z -0.00003388 -0.00036679 -0.00022187 -0.00018109 -0.00018304
               TOTAL  0.00037968  0.00036695  0.00059801  0.00018110  0.00018304

                           21
       FREQUENCY:      3193.71  
        SYMMETRY:         A   
    REDUCED MASS:      1.11097
    IR INTENSITY:      0.00574

  1   C            X -0.00000033
                   Y -0.00000030
                   Z -0.09186504
  2   N            X  0.00000002
                   Y  0.00000058
                   Z -0.00203969
  3   O            X  0.00027284
                   Y -0.00010292
                   Z  0.00086539
  4   O            X -0.00027284
                   Y  0.00010292
                   Z  0.00086538
  5   H            X  0.00000223
                   Y -0.00000050
                   Z -0.01583275
  6   H            X  0.19966685
                   Y  0.31228845
                   Z  0.55527329
  7   H            X -0.19966142
                   Y -0.31228897
                   Z  0.55525528

 TRANS. SAYVETZ    X  0.00000398
                   Y  0.00000360
                   Z  0.00000297
               TOTAL  0.00000613

   ROT. SAYVETZ    X -0.00004708
                   Y  0.00015074
                   Z  0.00000915
               TOTAL  0.00015818

 REFERENCE ON SAYVETZ CONDITIONS - A. SAYVETZ, J.CHEM.PHYS., 7, 383-389(1939).

 NOTE - THE MODES J,K ARE ORTHONORMALIZED ACCORDING TO
 SUM ON I   M(I) * (X(I,J)*X(I,K) + Y(I,J)*Y(I,K) + Z(I,J)*Z(I,K)) = DELTA(J,K)

  MODE FREQ(CM**-1)  SYMMETRY  RED. MASS  IR INTENS.
     1      15.894    A        1.181782    0.040686
     2       7.111    A        5.235876    0.088574
     3       6.392    A        3.607477    0.298365
     4       0.140    A        8.679621    0.000007
     5       0.055    A        8.558484    0.000035
     6       0.253    A        8.639285    0.000013
     7       7.508    A        5.069397    0.039098
     8     482.105    A        3.371321    0.021079
     9     612.068    A        3.536455    0.113669
    10     660.610    A        6.006630    0.377037
    11     924.806    A       10.329266    0.301909
    12    1110.313    A        1.393848    0.308184
    13    1132.989    A        1.543376    0.019346
    14    1397.821    A        1.885738    1.491613
    15    1425.994    A        2.448709    0.976614
    16    1463.286    A        1.076659    1.170268
    17    1475.542    A        1.064245    0.324913
    18    1619.551    A        8.499352    8.144736
    19    3071.487    A        1.030024    0.017339
    20    3162.318    A        1.103435    0.045484
    21    3193.708    A        1.110972    0.005744

     -------------------------------
     THERMOCHEMISTRY AT T=  298.15 K
     -------------------------------

 USING IDEAL GAS, RIGID ROTOR, HARMONIC NORMAL MODE APPROXIMATIONS.
 P=  1.01325E+05 PASCAL.
 V=  4.06261E-26 M**3.
 ALL FREQUENCIES ARE SCALED BY   1.00000
 THE MOMENTS OF INERTIA ARE (IN AMU*BOHR**2)
            146.49484           172.38189           307.44488
 THE ROTATIONAL SYMMETRY NUMBER IS  1.0
 THE ROTATIONAL CONSTANTS ARE (IN GHZ)
     12.30820    10.45985     5.86475
   1 IMAGINARY FREQUENCY VIBRATION(S) IS(ARE) EXCLUDED
     FROM THE FOLLOWING THERMOCHEMICAL ANALYSIS.
      8 -     21 VIBRATIONAL MODES ARE USED IN THERMOCHEMISTRY.
 THE HARMONIC ZERO POINT ENERGY IS (SCALED BY   1.000)
        0.049511 HARTREE/MOLECULE    10866.299529 CM**-1/MOLECULE 
       31.068341 KCAL/MOL              129.989937 KJ/MOL

               Q               LN Q
 ELEC.     1.00000E+00       0.000000
 TRANS.    1.87337E+07      16.745834
 ROT.      3.15415E+04      10.359059
 VIB.      1.25014E+00       0.223252
 TOT.      7.38690E+11      27.328145

              E         H         G         CV        CP        S
           KJ/MOL    KJ/MOL    KJ/MOL   J/MOL-K   J/MOL-K   J/MOL-K
 ELEC.      0.000     0.000     0.000     0.000     0.000     0.000
 TRANS.     3.718     6.197   -41.512    12.472    20.786   160.018
 ROT.       3.718     3.718   -25.679    12.472    12.472    98.601
 VIB.     131.681   131.681   129.437    19.302    19.302     7.527
 TOTAL    139.117   141.596    62.245    44.245    52.559   266.146
 VIB. THERMAL CORRECTION E(T)-E(0) = H(T)-H(0) =      1690.674 J/MOL

              E         H         G         CV        CP        S
         KCAL/MOL  KCAL/MOL  KCAL/MOL CAL/MOL-K CAL/MOL-K CAL/MOL-K
 ELEC.      0.000     0.000     0.000     0.000     0.000     0.000
 TRANS.     0.889     1.481    -9.922     2.981     4.968    38.245
 ROT.       0.889     0.889    -6.138     2.981     2.981    23.566
 VIB.      31.472    31.472    30.936     4.613     4.613     1.799
 TOTAL     33.250    33.842    14.877    10.575    12.562    63.610
 VIB. THERMAL CORRECTION E(T)-E(0) = H(T)-H(0) =       404.081 CAL/MOL
 ......END OF NORMAL COORDINATE ANALYSIS......
 CPU     0: STEP CPU TIME=     0.01 TOTAL CPU TIME=        336.1 (      5.6 MIN)
 TOTAL WALL CLOCK TIME=        340.0 SECONDS, CPU UTILIZATION IS    98.86%
              1107094  WORDS OF DYNAMIC MEMORY USED
 EXECUTION OF GAMESS TERMINATED NORMALLY 12:42:53 04-JUL-2022    
 DDI: 263640 bytes (0.3 MB / 0 MWords) used by master data server.

 ----------------------------------------
 CPU timing information for all processes
 ========================================
 0: 332.855 + 3.238 = 336.93
 1: 332.298 + 3.90 = 335.389
 2: 332.239 + 3.250 = 335.489
 3: 331.566 + 2.986 = 334.552
 4: 332.771 + 3.161 = 335.933
 5: 331.965 + 2.839 = 334.804
 6: 332.257 + 3.07 = 335.265
 7: 331.980 + 2.853 = 334.833
 ----------------------------------------
 ddikick.x: exited gracefully.
----- accounting info -----
Files used on the master node node1 were:
-rw-r--r-- 1 ajurado users   231136 jul  4 12:42 /tmp/nitro_freqs.dat
-rw-r--r-- 1 ajurado users      867 jul  4 12:37 /tmp/nitro_freqs.F05
-rw-r--r-- 1 ajurado users 28622544 jul  4 12:42 /tmp/nitro_freqs.F08
-rw-r--r-- 1 ajurado users 24122144 jul  4 12:42 /tmp/nitro_freqs.F08.001
-rw-r--r-- 1 ajurado users 25562272 jul  4 12:42 /tmp/nitro_freqs.F08.002
-rw-r--r-- 1 ajurado users 28262512 jul  4 12:42 /tmp/nitro_freqs.F08.003
-rw-r--r-- 1 ajurado users 29702640 jul  4 12:42 /tmp/nitro_freqs.F08.004
-rw-r--r-- 1 ajurado users 25202240 jul  4 12:42 /tmp/nitro_freqs.F08.005
-rw-r--r-- 1 ajurado users 27902480 jul  4 12:42 /tmp/nitro_freqs.F08.006
-rw-r--r-- 1 ajurado users 27902480 jul  4 12:42 /tmp/nitro_freqs.F08.007
-rw-r--r-- 1 ajurado users  2846640 jul  4 12:42 /tmp/nitro_freqs.F10
-rw-r--r-- 1 ajurado users  3774392 jul  4 12:42 /tmp/nitro_freqs.F22
-rw-r--r-- 1 ajurado users  3774392 jul  4 12:42 /tmp/nitro_freqs.F22.001
-rw-r--r-- 1 ajurado users  3774392 jul  4 12:42 /tmp/nitro_freqs.F22.002
-rw-r--r-- 1 ajurado users  3774392 jul  4 12:42 /tmp/nitro_freqs.F22.003
-rw-r--r-- 1 ajurado users  3774392 jul  4 12:42 /tmp/nitro_freqs.F22.004
-rw-r--r-- 1 ajurado users  3774392 jul  4 12:42 /tmp/nitro_freqs.F22.005
-rw-r--r-- 1 ajurado users  3774392 jul  4 12:42 /tmp/nitro_freqs.F22.006
-rw-r--r-- 1 ajurado users  3774392 jul  4 12:42 /tmp/nitro_freqs.F22.007
-rw-r--r-- 1 ajurado users    19710 jul  4 12:42 /tmp/nitro_freqs.rst
lun 04 jul 2022 12:42:56 CEST
0.0u 0.0s 5:43.17 0.0% 0+0k 0+8io 0pf+0w
