7
Atoms. Timestep: 5000
C 0.00252772 -0.00266105 0.0129862
N 1.49802 -0.00512223 -0.0145187
O 2.04283 0.0257681 1.09718
O 2.06631 -0.0195886 -1.09543
H -0.319781 0.991584 0.252824
H -0.309316 -0.303419 -0.993627
H -0.280358 -0.683324 0.760042
7
Atoms. Timestep: 10000
C 0.0246519 -0.012093 0.0229828
N 1.49907 0.0062476 -0.0226889
O 2.02858 -0.0270818 1.09942
O 2.06752 0.0333742 -1.09951
H -0.316957 0.951889 -0.294936
H -0.357989 -0.806684 -0.656144
H -0.305691 -0.187804 0.993914
7
Atoms. Timestep: 15000
C 0.00978201 -0.0109655 0.0216824
N 1.49574 -0.00422887 -0.00799668
O 2.02797 0.0357074 1.09441
O 2.06617 -0.0204269 -1.10281
H -0.271015 0.993461 0.298033
H -0.253049 -0.287638 -1.03896
H -0.202071 -0.758868 0.727029
7
Atoms. Timestep: 20000
C 0.051728 -0.0298098 0.0037339
N 1.50247 0.00748312 0.0090637
O 2.02859 0.00463371 1.0928
O 2.04862 0.0144794 -1.10417
H -0.354706 0.986616 -0.0646334
H -0.351212 -0.613258 -0.863714
H -0.34493 -0.425478 0.938286
7
Atoms. Timestep: 25000
C 0.0223951 -0.028831 -0.011705
N 1.49984 -0.000828731 0.0084374
O 2.04426 0.0057728 1.10492
O 2.03784 0.0267843 -1.10238
H -0.279803 1.03347 -0.187395
H -0.235023 -0.725901 -0.8377
H -0.227702 -0.469158 1.007
7
Atoms. Timestep: 30000
C 0.0421962 -0.0445524 -0.0215718
N 1.50775 0.00906472 0.00328014
O 2.05317 0.0536916 1.10465
O 2.02162 -0.0149503 -1.08932
H -0.353089 0.940101 0.295021
H -0.300575 -0.289055 -1.02598
H -0.318658 -0.860955 0.699095
7
Atoms. Timestep: 35000
C 0.0264963 -0.0582435 -0.0249746
N 1.48469 0.00479548 0.000336026
O 2.07238 -0.000104477 1.11066
O 2.0253 0.0505394 -1.09085
H -0.303902 0.905428 -0.368284
H -0.215681 -0.836233 -0.695386
H -0.308357 -0.242198 1.04217
7
Atoms. Timestep: 40000
C 0.0079701 -0.0677827 -0.0139714
N 1.51625 0.0115255 0.00541307
O 2.0576 0.0597125 1.10473
O 2.02788 0.00111199 -1.09764
H -0.359071 0.908167 0.205292
H -0.222308 -0.400841 -0.974631
H -0.270987 -0.825073 0.748201
7
Atoms. Timestep: 45000
C 0.0252721 -0.0914565 -0.000703647
N 1.4903 0.0113536 0.00695944
O 2.05473 0.0476159 1.09059
O 2.05274 0.0319274 -1.09499
H -0.39572 0.88258 -0.0386875
H -0.318511 -0.603301 -0.862654
H -0.332367 -0.609602 0.882958
7
Atoms. Timestep: 50000
C -0.0171937 -0.110509 0.0105935
N 1.50213 0.0149691 0.00282466
O 2.0478 0.0385411 1.08124
O 2.06624 0.0578771 -1.09762
H -0.391731 0.88295 -0.173758
H -0.231893 -0.876928 -0.736129
H -0.185869 -0.427362 1.00434
7
Atoms. Timestep: 55000
C 0.00662879 -0.141399 0.0259453
N 1.49582 0.0142343 -0.0146142
O 2.0448 0.104582 1.08473
O 2.07858 0.0163641 -1.09799
H -0.44657 0.8097 0.3615
H -0.449907 -0.349748 -0.958286
H -0.257404 -0.892247 0.701098
7
Atoms. Timestep: 60000
C -0.0310594 -0.164557 0.0387656
N 1.49653 0.0151748 -0.0212051
O 2.06014 0.06276 1.08372
O 2.0757 0.0857091 -1.10038
H -0.462544 0.830846 -0.29896
H -0.187873 -1.01337 -0.63767
H -0.261872 -0.423657 1.03385
7
Atoms. Timestep: 65000
C -0.00802156 -0.210659 0.0312627
N 1.50328 0.0181432 -0.015799
O 2.05867 0.127793 1.07533
O 2.0704 0.0558756 -1.09108
H -0.550531 0.765834 0.138619
H -0.325224 -0.597341 -0.919249
H -0.297462 -0.825187 0.877675
7
Atoms. Timestep: 70000
C -0.0191918 -0.236935 -0.00273464
N 1.49116 0.0226197 0.0107098
O 2.07985 0.149352 1.07723
O 2.06031 0.0699578 -1.08844
H -0.517644 0.739298 0.0777104
H -0.29466 -0.796164 -0.884866
H -0.235214 -0.914542 0.868734
7
Atoms. Timestep: 75000
C -0.0180333 -0.283692 -0.0153636
N 1.51388 0.0242378 0.0200625
O 2.08143 0.146417 1.07968
O 2.03362 0.113481 -1.08472
H -0.528732 0.582174 -0.309892
H -0.163154 -1.11253 -0.727818
H -0.286846 -0.550492 1.02185
7
Atoms. Timestep: 80000
C 0.00388568 -0.335385 0.00422069
N 1.48538 0.033609 0.00594145
O 2.07285 0.234845 1.09156
O 2.05636 0.0670621 -1.08955
H -0.552956 0.515147 0.230841
H -0.302189 -0.614498 -1.0309
H -0.213316 -1.16245 0.635303
7
Atoms. Timestep: 85000
C 0.00851579 -0.380906 0.00338309
N 1.50007 0.0244428 -0.000133532
O 2.06447 0.20835 1.07528
O 2.0333 0.141975 -1.07458
H -0.586168 0.471319 -0.338089
H 0.0255448 -1.22957 -0.714163
H -0.268239 -0.602079 1.00279
7
Atoms. Timestep: 90000
C 0.0515019 -0.442856 0.0191369
N 1.48758 0.0419802 -0.0102355
O 2.03841 0.280473 1.08228
O 2.0453 0.118944 -1.08876
H -0.625924 0.476839 0.0541415
H -0.206874 -0.986702 -0.909402
H -0.111551 -1.1351 0.87242
7
Atoms. Timestep: 95000
C 0.0590652 -0.50711 0.0205135
N 1.48786 0.0381855 -0.0020296
O 2.0075 0.314555 1.07451
O 2.04986 0.148368 -1.1021
H -0.606452 0.406238 0.0986084
H -0.0412377 -1.11844 -0.855324
H 0.0273291 -1.12218 0.978307
7
Atoms. Timestep: 100000
C 0.107049 -0.577276 0.0448227
N 1.50146 0.0556024 -0.000496274
O 1.98359 0.319013 1.0678
O 2.02824 0.203077 -1.11256
H -0.635335 0.0968616 -0.329178
H 0.0645092 -1.41196 -0.596836
H -0.087596 -0.864205 1.10905
7
Atoms. Timestep: 105000
C 0.158633 -0.643066 0.0536265
N 1.46483 0.0447273 -0.0138919
O 1.93538 0.419015 1.06211
O 2.05057 0.178163 -1.10438
H -0.537429 0.0782387 0.356162
H -0.0115635 -1.08168 -0.91795
H 0.195665 -1.43235 0.786734
7
Atoms. Timestep: 110000
C 0.201026 -0.726839 0.0515918
N 1.49631 0.0660728 -0.0208106
O 1.92514 0.414815 1.07115
O 1.99001 0.245064 -1.09899
H -0.611249 -0.131003 -0.340105
H 0.348289 -1.60201 -0.601626
H 0.0904307 -0.996265 1.05806
7
Atoms. Timestep: 115000
C 0.286484 -0.808377 0.038522
N 1.46058 0.0544686 -0.0136754
O 1.88521 0.507073 1.08812
O 1.98764 0.239996 -1.11672
H -0.606137 -0.111846 0.0450478
H 0.274141 -1.51351 -0.815802
H 0.309007 -1.35467 0.955557
7
Atoms. Timestep: 120000
C 0.347189 -0.891426 0.0375994
N 1.47652 0.0717065 0.00281278
O 1.83637 0.562387 1.06196
O 1.95575 0.24684 -1.10456
H -0.642252 -0.300552 0.0935188
H 0.44486 -1.46825 -0.884707
H 0.510572 -1.44764 0.980144
7
Atoms. Timestep: 125000
C 0.44106 -0.958435 0.0501122
N 1.46009 0.0754628 0.0178991
O 1.82016 0.589507 1.05409
O 1.89856 0.294528 -1.11763
H -0.477313 -0.499271 -0.462805
H 0.806672 -1.83174 -0.481172
H 0.258558 -1.3263 1.10637
7
Atoms. Timestep: 130000
C 0.518338 -1.05308 0.0614636
N 1.46207 0.0818926 0.00808711
O 1.71268 0.682713 1.04038
O 1.92259 0.276475 -1.11361
H -0.489774 -0.649689 0.291057
H 0.569088 -1.5171 -0.924976
H 0.88466 -1.64479 0.951336
7
Atoms. Timestep: 135000
C 0.62205 -1.11651 0.0923338
N 1.45419 0.0782418 -0.0111269
O 1.67784 0.694321 1.04551
O 1.86341 0.340988 -1.13116
H -0.34194 -0.88163 -0.275538
H 1.07941 -1.94559 -0.462334
H 0.592057 -1.38572 1.15136
7
Atoms. Timestep: 140000
C 0.725269 -1.19478 0.137183
N 1.4426 0.0785199 -0.0243835
O 1.5795 0.742556 1.02015
O 1.86603 0.35819 -1.13149
H -0.298555 -0.95547 -0.0108512
H 1.17788 -1.84794 -0.63178
H 0.900439 -1.51921 1.11384
7
Atoms. Timestep: 145000
C 0.843756 -1.23869 0.184433
N 1.44671 0.0881859 -0.0214793
O 1.47107 0.766093 0.978546
O 1.86105 0.380852 -1.12986
H -0.242698 -1.17275 0.137258
H 1.10207 -1.83878 -0.696943
H 1.25105 -1.65535 1.06184
7
Atoms. Timestep: 150000
C 0.984149 -1.3033 0.199347
N 1.41982 0.0778259 -0.00908107
O 1.42654 0.789932 0.980949
O 1.79636 0.42299 -1.17624
H -0.0345953 -1.37219 -0.251605
H 1.75049 -1.9608 -0.198374
H 0.828643 -1.46705 1.29992
7
Atoms. Timestep: 155000
C 1.10443 -1.35126 0.224487
N 1.43562 0.112464 -0.0217583
O 1.27177 0.824744 0.935373
O 1.81113 0.404646 -1.14451
H 0.0052312 -1.46392 0.341366
H 1.44975 -1.93407 -0.614121
H 1.65862 -1.57337 1.21906
7
Atoms. Timestep: 160000
C 1.2599 -1.36086 0.251771
N 1.40565 0.069025 -0.0213039
O 1.20907 0.862094 0.923817
O 1.74461 0.423732 -1.16029
H 0.276329 -1.64593 -0.0773672
H 2.05173 -1.94209 -0.220449
H 1.4 -1.56064 1.3465
7
Atoms. Timestep: 165000
C 1.41386 -1.39064 0.296889
N 1.4139 0.0994356 -0.0260634
O 1.09035 0.864177 0.884446
O 1.71098 0.411861 -1.14479
H 0.484577 -1.80426 -0.0455101
H 2.20849 -1.75941 -0.341841
H 1.50347 -1.49753 1.34344
7
Atoms. Timestep: 170000
C 1.55987 -1.37289 0.322552
N 1.39722 0.0844693 -0.0119571
O 0.943373 0.856212 0.845555
O 1.72303 0.423424 -1.14513
H 0.532445 -1.8389 0.326777
H 2.20142 -1.80355 -0.466605
H 2.09579 -1.47934 1.21659
7
Atoms. Timestep: 175000
C 1.71844 -1.36182 0.354333
N 1.38351 0.0961474 -0.00325175
O 0.88307 0.842707 0.83657
O 1.65207 0.41368 -1.17798
H 0.943707 -1.99714 -0.202828
H 2.74011 -1.58886 0.0272847
H 1.53003 -1.46117 1.41656
7
Atoms. Timestep: 180000
C 1.82958 -1.31422 0.401289
N 1.37788 0.103729 -0.0112895
O 0.743976 0.768424 0.767432
O 1.67201 0.436705 -1.14887
H 0.968306 -2.04545 0.314576
H 2.59209 -1.66675 -0.287556
H 2.29825 -1.19411 1.40131
7
Atoms. Timestep: 185000
C 1.94927 -1.2468 0.464999
N 1.38744 0.0661292 -0.0218957
O 0.666227 0.718199 0.742064
O 1.63217 0.454483 -1.18108
H 1.21731 -1.99151 0.228216
H 2.88894 -1.39282 -0.0583472
H 2.05946 -1.28779 1.56053
7
Atoms. Timestep: 190000
C 2.04341 -1.19889 0.513918
N 1.36939 0.10168 -0.0552726
O 0.602919 0.644149 0.725678
O 1.60929 0.438916 -1.18175
H 1.58729 -2.02159 0.0707103
H 3.10887 -1.15316 0.217193
H 1.9663 -1.14026 1.59405
7
Atoms. Timestep: 195000
C 2.14054 -1.11856 0.538348
N 1.39008 0.0628549 -0.0415282
O 0.468107 0.554808 0.680928
O 1.63517 0.490953 -1.18184
H 1.44468 -1.92493 0.636379
H 3.05545 -1.37936 -0.0772577
H 2.44596 -0.836178 1.55234
7
Atoms. Timestep: 200000
C 2.21831 -1.03423 0.576656
N 1.35181 0.0853851 -0.0471163
O 0.464785 0.494591 0.653588
O 1.59764 0.45325 -1.17848
H 1.97707 -2.01058 0.0872894
H 3.31629 -0.825327 0.393978
H 1.90624 -1.06875 1.63192
7
Atoms. Timestep: 205000
C 2.27524 -0.963586 0.592411
N 1.36097 0.06621 -0.0176742
O 0.367588 0.393471 0.598077
O 1.62501 0.495676 -1.16872
H 1.81667 -1.97941 0.371348
H 3.27179 -0.804388 0.198797
H 2.41363 -0.764644 1.67206
7
Atoms. Timestep: 210000
C 2.35371 -0.884157 0.616463
N 1.33387 0.0746997 -0.0368607
O 0.30261 0.302675 0.567619
O 1.6479 0.508191 -1.1393
H 2.00805 -1.90326 0.387794
H 3.27472 -0.73044 0.143874
H 2.32886 -0.736946 1.70711
7
Atoms. Timestep: 215000
C 2.38641 -0.815301 0.620951
N 1.35642 0.0683748 -0.0255357
O 0.250034 0.241703 0.542001
O 1.64288 0.49911 -1.13452
H 2.44009 -1.74242 0.0828674
H 3.29027 -0.305978 0.605662
H 2.09216 -0.943144 1.67013
7
Atoms. Timestep: 220000
C 2.42363 -0.731538 0.648879
N 1.34073 0.0614289 -0.037385
O 0.206079 0.0911862 0.46447
O 1.6698 0.576863 -1.07073
H 2.09707 -1.74525 0.599878
H 3.33111 -0.52921 0.115232
H 2.43927 -0.463919 1.69341
7
Atoms. Timestep: 225000
C 2.41449 -0.684261 0.683453
N 1.33669 0.0612697 -0.0278049
O 0.205433 0.0279547 0.44529
O 1.66754 0.581688 -1.08917
H 2.63623 -1.56875 0.0650802
H 3.32523 -0.0150976 0.668946
H 2.11706 -0.788818 1.7264
7
Atoms. Timestep: 230000
C 2.41725 -0.610162 0.717086
N 1.33725 0.0446586 -0.0262678
O 0.200588 -0.0933877 0.385922
O 1.6738 0.6573 -1.06641
H 2.5043 -1.65586 0.322506
H 3.36547 0.0225875 0.535585
H 2.14571 -0.66573 1.76117
7
Atoms. Timestep: 235000
C 2.42694 -0.553457 0.760745
N 1.3226 0.0594345 -0.0526
O 0.209519 -0.215597 0.330992
O 1.67182 0.717236 -1.02828
H 2.46683 -1.63051 0.465078
H 3.40359 -0.0898156 0.493249
H 2.12309 -0.47151 1.77332
7
Atoms. Timestep: 240000
C 2.41473 -0.507323 0.778608
N 1.36013 0.0477757 -0.0455644
O 0.217751 -0.267913 0.303885
O 1.64847 0.725571 -1.03518
H 2.89533 -1.29175 0.207203
H 3.01229 0.293673 1.11294
H 1.94951 -0.883505 1.64045
7
Atoms. Timestep: 245000
C 2.41504 -0.454154 0.826642
N 1.34036 0.0550615 -0.0684834
O 0.240627 -0.403157 0.212239
O 1.63822 0.810342 -0.958515
H 2.5774 -1.48294 0.527984
H 3.29058 0.0913893 0.528808
H 2.05994 -0.423877 1.88782
7
Atoms. Timestep: 250000
C 2.417 -0.411686 0.824859
N 1.34659 0.0366675 -0.0414871
O 0.225871 -0.457762 0.173008
O 1.64606 0.826295 -0.957813
H 2.9691 -1.20881 0.320312
H 3.0382 0.490765 1.06406
H 1.92025 -0.734374 1.81765
7
Atoms. Timestep: 255000
C 2.42391 -0.34514 0.866127
N 1.31341 0.0249151 -0.0553178
O 0.258188 -0.530851 0.0967517
O 1.63929 0.853228 -0.904193
H 2.93482 -1.15343 0.39846
H 3.02817 0.596006 1.08072
H 1.93824 -0.792134 1.78256
7
Atoms. Timestep: 260000
C 2.3938 -0.29792 0.898081
N 1.33825 0.00741176 -0.0376409
O 0.286857 -0.62796 0.00205961
O 1.60587 0.907387 -0.848578
H 2.85768 -1.17685 0.566498
H 3.16782 0.484211 0.811655
H 1.96462 -0.294707 1.87726
7
Atoms. Timestep: 265000
C 2.39589 -0.258296 0.948901
N 1.31398 0.0247244 -0.0686148
O 0.306536 -0.660089 -0.0153331
O 1.61347 0.892345 -0.854449
H 3.22789 -0.730968 0.416728
H 2.62565 0.72078 1.35406
H 2.01601 -0.941385 1.67877
7
Atoms. Timestep: 270000
C 2.35412 -0.206414 0.987849
N 1.35536 0.0198605 -0.0599177
O 0.362679 -0.757255 -0.108704
O 1.55706 0.952757 -0.810415
H 2.95935 -1.10278 0.671479
H 3.00308 0.635567 1.04151
H 1.83403 -0.451705 1.93453
7
Atoms. Timestep: 275000
C 2.3384 -0.184448 1.03541
N 1.34354 0.0225974 -0.066746
O 0.41288 -0.79655 -0.145712
O 1.54721 0.959036 -0.818898
H 3.13657 -0.871173 0.598839
H 2.63279 0.779095 1.40196
H 1.73813 -0.602714 1.89677
7
Atoms. Timestep: 280000
C 2.27744 -0.151398 1.09638
N 1.34733 0.00341855 -0.0733125
O 0.47492 -0.816842 -0.181545
O 1.52817 0.968673 -0.828468
H 3.20326 -0.571992 0.730353
H 2.48512 0.806086 1.47406
H 1.81059 -0.887011 1.77844
7
Atoms. Timestep: 285000
C 2.24585 -0.13543 1.14048
N 1.35418 0.00834028 -0.073929
O 0.558007 -0.890721 -0.253206
O 1.47861 1.01402 -0.804611
H 2.91895 -0.927996 0.945179
H 2.73381 0.783267 1.28514
H 1.59544 -0.314133 1.9942
7
Atoms. Timestep: 290000
C 2.19616 -0.0883456 1.18876
N 1.35935 0.00883938 -0.0915245
O 0.564506 -0.904362 -0.268941
O 1.51191 0.987345 -0.823776
H 3.21084 -0.337364 0.952994
H 2.1151 0.846617 1.74073
H 1.8109 -0.896279 1.75394
7
Atoms. Timestep: 295000
C 2.13481 -0.0491705 1.23453
N 1.37844 0.0170902 -0.0825809
O 0.646102 -0.967636 -0.348197
O 1.47128 0.996438 -0.789175
H 3.04533 -0.630436 1.00859
H 2.47947 0.985339 1.54918
H 1.42758 -0.463626 1.9288
7
Atoms. Timestep: 300000
C 2.07683 -0.00521099 1.26486
N 1.36715 9.75717e-05 -0.0986293
O 0.707339 -0.983975 -0.384021
O 1.4792 0.985378 -0.777843
H 3.06854 -0.52587 1.20639
H 2.14187 1.08346 1.52759
H 1.49235 -0.519131 2.00298
7
Atoms. Timestep: 305000
C 2.00418 0.0375068 1.31551
N 1.38266 -0.0236105 -0.0729384
O 0.728252 -1.01449 -0.421596
O 1.51297 0.991802 -0.804334
H 3.06456 -0.00778673 1.15254
H 1.78384 1.00128 1.71193
H 1.6366 -0.752218 1.92848
7
Atoms. Timestep: 310000
C 1.93456 0.0814537 1.34468
N 1.37067 -0.0268975 -0.108262
O 0.847615 -1.05914 -0.463886
O 1.48277 1.00117 -0.767604
H 2.78678 -0.530675 1.45395
H 2.13623 1.0855 1.55847
H 1.14336 -0.231623 2.01222
7
Atoms. Timestep: 315000
C 1.82784 0.120512 1.37269
N 1.39324 -0.0255008 -0.0825679
O 0.86595 -1.06267 -0.480346
O 1.5415 0.969406 -0.793842
H 2.88168 0.0594225 1.39874
H 1.54779 1.09195 1.74001
H 1.37181 -0.752947 1.87251
7
Atoms. Timestep: 320000
C 1.73758 0.12607 1.38562
N 1.40685 -0.0108632 -0.101286
O 0.956378 -1.0879 -0.481462
O 1.54053 0.972236 -0.799197
H 2.77804 -0.172086 1.51997
H 1.46511 1.16459 1.68393
H 1.02504 -0.508289 2.01625
7
Atoms. Timestep: 325000
C 1.62395 0.13257 1.39739
N 1.41552 0.0044288 -0.0822319
O 1.04141 -1.12369 -0.484981
O 1.54939 0.985272 -0.821282
H 2.57059 -0.296035 1.71482
H 1.64036 1.22832 1.57228
H 0.800498 -0.377025 1.93426
7
Atoms. Timestep: 330000
C 1.50465 0.162367 1.41514
N 1.43265 -0.0110024 -0.118048
O 1.06152 -1.11676 -0.467936
O 1.62996 0.96517 -0.815457
H 2.57424 0.275627 1.61752
H 0.946403 1.05271 1.70277
H 1.07675 -0.70457 1.82451
7
Atoms. Timestep: 335000
C 1.41481 0.192347 1.38086
N 1.42214 -0.012148 -0.0780114
O 1.18397 -1.14201 -0.464497
O 1.61112 0.973331 -0.830664
H 2.26397 -0.336766 1.87331
H 1.34679 1.23874 1.60749
H 0.558946 -0.348323 1.70259
7
Atoms. Timestep: 340000
C 1.29731 0.209652 1.376
N 1.44506 -0.0222984 -0.0926044
O 1.20645 -1.14525 -0.461815
O 1.67792 0.954271 -0.808378
H 2.37897 0.233433 1.75824
H 0.858809 1.19159 1.5321
H 0.596671 -0.582582 1.7577
7
Atoms. Timestep: 345000
C 1.22 0.243244 1.34464
N 1.43338 -0.0197948 -0.0816627
O 1.25836 -1.1822 -0.473342
O 1.71749 0.957738 -0.783523
H 2.19409 0.271207 1.87155
H 0.701512 1.21542 1.38208
H 0.570555 -0.54789 1.80445
7
Atoms. Timestep: 350000
C 1.12937 0.278322 1.34211
N 1.44619 -0.0169842 -0.0972683
O 1.34846 -1.20996 -0.458937
O 1.70137 0.952607 -0.765996
H 1.93517 -0.11366 1.9099
H 1.05423 1.38868 1.39291
H 0.204718 -0.271456 1.49562
7
Atoms. Timestep: 355000
C 1.06284 0.291031 1.27965
N 1.44532 -0.0230874 -0.0751874
O 1.34288 -1.19039 -0.463555
O 1.7811 0.924545 -0.737409
H 1.92256 0.510273 1.83317
H 0.315595 1.10255 1.31778
H 0.584097 -0.541078 1.70446
7
Atoms. Timestep: 360000
C 0.982855 0.295113 1.28892
N 1.4448 -0.0377303 -0.0796403
O 1.4218 -1.20739 -0.430029
O 1.76751 0.947232 -0.758603
H 1.79674 0.129525 1.9718
H 0.787085 1.36625 1.2136
H 0.162006 -0.35942 1.42571
7
Atoms. Timestep: 365000
C 0.924207 0.294514 1.24917
N 1.45825 -0.0414656 -0.0848181
O 1.44339 -1.19949 -0.398967
O 1.79907 0.94107 -0.76261
H 1.80036 0.227701 1.9496
H 0.527978 1.31357 1.2206
H 0.0859335 -0.373339 1.55718
7
Atoms. Timestep: 370000
C 0.88095 0.30286 1.23771
N 1.44773 -0.0171284 -0.0569118
O 1.44549 -1.21065 -0.398845
O 1.84833 0.934081 -0.768999
H 1.69351 0.533434 1.95312
H 0.207923 1.1028 1.06183
H 0.359405 -0.617989 1.56057
7
Atoms. Timestep: 375000
C 0.822548 0.301004 1.23843
N 1.46852 -0.00165877 -0.0969505
O 1.51966 -1.20214 -0.340753
O 1.80866 0.912393 -0.78836
H 1.55234 -0.0294061 1.95717
H 0.661574 1.34495 1.34555
H -0.0935361 -0.281179 1.20606
7
Atoms. Timestep: 380000
C 0.796599 0.294259 1.21194
N 1.45279 0.00826131 -0.0641456
O 1.50106 -1.20607 -0.360173
O 1.87524 0.910026 -0.779804
H 1.52807 0.538687 1.97227
H 0.0728507 1.1205 1.00678
H 0.285873 -0.582323 1.56183
7
Atoms. Timestep: 385000
C 0.75223 0.300508 1.22554
N 1.45998 -0.0156146 -0.0904221
O 1.54579 -1.20982 -0.332059
O 1.86031 0.918952 -0.78899
H 1.54092 0.363825 1.98824
H 0.315766 1.35045 1.02708
H -0.0139497 -0.462237 1.42837
7
Atoms. Timestep: 390000
C 0.743725 0.328734 1.19873
N 1.45407 -0.0310328 -0.0742323
O 1.59009 -1.20912 -0.328415
O 1.84014 0.90523 -0.794711
H 1.43313 0.20326 2.06562
H 0.41136 1.40216 1.19768
H -0.201301 -0.268696 1.30775
7
Atoms. Timestep: 395000
C 0.717024 0.384863 1.20311
N 1.4417 -0.0412625 -0.0721077
O 1.57508 -1.21844 -0.361817
O 1.87461 0.885933 -0.754164
H 1.48421 0.744248 1.91184
H 0.00297734 1.11328 0.907982
H 0.337306 -0.593343 1.55615
7
Atoms. Timestep: 400000
C 0.717699 0.380618 1.18282
N 1.45369 -0.0371217 -0.0735997
O 1.63525 -1.23155 -0.323035
O 1.8147 0.886139 -0.784806
H 1.38518 0.23287 2.03302
H 0.460906 1.39986 1.16296
H -0.200466 -0.170659 1.31329
7
Atoms. Timestep: 405000
C 0.719278 0.369678 1.22382
N 1.43908 -0.0207012 -0.0822888
O 1.61001 -1.23894 -0.327074
O 1.84594 0.888829 -0.79157
H 1.4939 0.61898 1.94403
H 0.169982 1.26523 0.861013
H 0.0706832 -0.445537 1.50798
7
Atoms. Timestep: 410000
C 0.725107 0.37082 1.20754
N 1.45905 -0.0209565 -0.0905751
O 1.60702 -1.22586 -0.312872
O 1.82986 0.87367 -0.802624
H 1.46233 0.622376 1.93769
H 0.0926133 1.27337 1.00418
H 0.135295 -0.434037 1.63031
7
Atoms. Timestep: 415000
C 0.751389 0.373971 1.21856
N 1.43441 -0.0209663 -0.0765886
O 1.64551 -1.21619 -0.278044
O 1.79175 0.867023 -0.855442
H 1.4284 0.226338 2.05527
H 0.436882 1.40247 1.19953
H -0.151706 -0.252594 1.27717
7
Atoms. Timestep: 420000
C 0.756207 0.376015 1.23779
N 1.4462 -0.028123 -0.0868479
O 1.58721 -1.20582 -0.286124
O 1.82031 0.868259 -0.853519
H 1.5549 0.773065 1.87712
H -0.0109652 1.06536 1.02235
H 0.420315 -0.571213 1.64368
7
Atoms. Timestep: 425000
C 0.801974 0.359617 1.24243
N 1.43203 -0.0207131 -0.0825466
O 1.62565 -1.21746 -0.25321
O 1.75764 0.878099 -0.906488
H 1.5755 0.351368 2.03482
H 0.399599 1.35329 1.17394
H 0.0252873 -0.316499 1.53758
7
Atoms. Timestep: 430000
C 0.85479 0.375032 1.27473
N 1.4252 -0.0116831 -0.0904049
O 1.61237 -1.21724 -0.253776
O 1.72346 0.855292 -0.909584
H 1.71993 0.483621 1.93772
H 0.366885 1.36771 1.07766
H 0.132362 -0.413896 1.51339
7
Atoms. Timestep: 435000
C 0.914117 0.412873 1.24039
N 1.42918 -0.0158337 -0.0963059
O 1.57448 -1.22951 -0.266727
O 1.70311 0.841589 -0.887374
H 1.74211 0.757182 1.84003
H 0.0739253 1.17622 1.19295
H 0.565002 -0.477007 1.84009
7
Atoms. Timestep: 440000
C 0.987971 0.441494 1.2752
N 1.40973 -0.0297264 -0.0866561
O 1.62174 -1.24716 -0.252375
O 1.60158 0.844311 -0.916597
H 1.82526 0.25964 1.92673
H 0.707768 1.49721 1.1532
H 0.0995876 -0.211591 1.48017
7
Atoms. Timestep: 445000
C 1.05351 0.438618 1.26514
N 1.41465 -0.0527242 -0.0856869
O 1.555 -1.24849 -0.259554
O 1.59401 0.852261 -0.916358
H 1.95049 0.847728 1.71039
H 0.389619 1.25242 1.17849
H 0.622379 -0.305945 1.88776
7
Atoms. Timestep: 450000
C 1.13736 0.468634 1.29123
N 1.40265 -0.0601184 -0.0851357
O 1.54756 -1.24949 -0.253229
O 1.52654 0.842513 -0.929616
H 2.14552 0.676669 1.7027
H 0.538604 1.33229 1.05904
H 0.634646 -0.299104 1.80637
7
Atoms. Timestep: 455000
C 1.22551 0.468282 1.27509
N 1.39604 -0.0380301 -0.0797724
O 1.55103 -1.24587 -0.235137
O 1.44359 0.815712 -0.9541
H 2.23455 0.40866 1.76126
H 0.899693 1.52116 1.28324
H 0.487304 -0.154858 1.74287
7
Atoms. Timestep: 460000
C 1.31853 0.469887 1.28708
N 1.39125 -0.0176868 -0.0935037
O 1.46916 -1.25847 -0.215682
O 1.43896 0.813361 -0.972089
H 2.30531 0.949909 1.51792
H 0.473254 1.18493 1.38132
H 1.17394 -0.424629 1.9128
7
Atoms. Timestep: 465000
C 1.42341 0.476968 1.30178
N 1.38182 -0.0223291 -0.106575
O 1.49666 -1.25226 -0.184831
O 1.32203 0.807722 -0.997224
H 2.41746 0.343123 1.63472
H 1.08419 1.47598 1.19122
H 0.751375 -0.137705 1.90191
7
Atoms. Timestep: 470000
C 1.51388 0.471973 1.2764
N 1.37988 -0.0252365 -0.0899521
O 1.43904 -1.23176 -0.174366
O 1.29076 0.784625 -1.00672
H 2.50916 0.706807 1.42149
H 0.981457 1.36596 1.36643
H 1.12222 -0.250327 1.99604
7
Atoms. Timestep: 475000
C 1.61355 0.503026 1.27101
N 1.36709 -0.0323372 -0.0716197
O 1.39867 -1.23699 -0.165883
O 1.24523 0.779588 -1.01654
H 2.65815 0.765512 1.3085
H 0.883513 1.31772 1.39334
H 1.42434 -0.36918 1.91268
7
Atoms. Timestep: 480000
C 1.6979 0.527673 1.23149
N 1.36641 -0.0425417 -0.0818283
O 1.41253 -1.2557 -0.170178
O 1.14258 0.775986 -0.981231
H 2.78008 0.277886 1.42823
H 1.48485 1.64751 1.30422
H 1.11428 -0.00899473 2.00268
7
Atoms. Timestep: 485000
C 1.80798 0.536131 1.22991
N 1.35459 -0.0376384 -0.0786127
O 1.31725 -1.27403 -0.153368
O 1.15115 0.773547 -0.974698
H 2.78417 0.984512 1.01554
H 1.10707 1.33762 1.38799
H 1.71675 -0.245193 1.93526
7
Atoms. Timestep: 490000
C 1.87686 0.546483 1.17903
N 1.35494 -0.0360403 -0.0676007
O 1.31047 -1.26512 -0.159894
O 1.07538 0.752871 -0.943275
H 2.9563 0.575564 1.11864
H 1.4816 1.5133 1.20608
H 1.65459 0.0293557 2.07215
7
Atoms. Timestep: 495000
C 1.98229 0.577886 1.15217
N 1.35045 -0.0384291 -0.0586398
O 1.27534 -1.27572 -0.15043
O 1.02108 0.742254 -0.929637
H 3.07819 0.457276 1.0289
H 1.68589 1.63571 1.17734
H 1.55358 0.0208656 2.01966
7
Atoms. Timestep: 500000
C 2.06945 0.576414 1.10896
N 1.34403 -0.0494335 -0.0641314
O 1.19314 -1.27183 -0.0957534
O 1.01849 0.743362 -0.946694
H 3.05344 0.968801 0.79757
H 1.5564 1.46976 1.53648
H 2.10393 -0.233493 1.88598
7
Atoms. Timestep: 505000
C 2.15937 0.569482 1.08935
N 1.34674 -0.0520983 -0.0654339
O 1.2089 -1.25042 -0.0845357
O 0.921258 0.741688 -0.920809
H 3.12609 0.219789 0.895166
H 1.98721 1.63043 0.977309
H 1.78431 0.161346 2.01058
7
Atoms. Timestep: 510000
C 2.23245 0.522781 1.02589
N 1.34588 -0.0240043 -0.0498066
O 1.13443 -1.23174 -0.022769
O 0.917144 0.726462 -0.948487
H 3.22759 0.724292 0.675818
H 1.83921 1.5027 1.31883
H 2.21891 -0.104437 1.88639
7
Atoms. Timestep: 515000
C 2.30116 0.527063 0.995148
N 1.33818 -0.0147517 -0.0811636
O 1.1044 -1.21839 0.0180287
O 0.882179 0.717115 -0.923351
H 3.32421 0.46967 0.517612
H 2.03781 1.58338 1.25921
H 2.24339 -0.173616 1.86008
7
Atoms. Timestep: 520000
C 2.38128 0.527943 0.912954
N 1.33764 -0.00897938 -0.0600711
O 1.08043 -1.23195 0.036671
O 0.834691 0.729867 -0.894839
H 3.38553 0.0538709 0.666621
H 2.32306 1.62106 0.993521
H 2.08384 0.126652 1.91467
7
Atoms. Timestep: 525000
C 2.4425 0.504177 0.880833
N 1.32442 -0.0325349 -0.0692535
O 0.999854 -1.18572 0.116462
O 0.8698 0.714869 -0.914203
H 3.29343 0.716895 0.250523
H 2.09563 1.43711 1.21637
H 2.57917 -0.237474 1.65941
7
Atoms. Timestep: 530000
C 2.48648 0.497504 0.799337
N 1.34866 -0.0397436 -0.0326611
O 0.976779 -1.19261 0.118772
O 0.821499 0.73112 -0.878499
H 3.4181 0.119633 0.388508
H 2.42001 1.5958 0.73994
H 2.40168 0.23229 1.85704
7
Atoms. Timestep: 535000
C 2.53974 0.504505 0.724631
N 1.31697 -0.057538 -0.045823
O 0.924787 -1.17252 0.182243
O 0.849948 0.725936 -0.861085
H 3.47689 0.191118 0.220735
H 2.43256 1.648 0.802228
H 2.50982 0.0360603 1.75208
7
Atoms. Timestep: 540000
C 2.56995 0.474908 0.672157
N 1.34318 -0.0297705 -0.0366806
O 0.858675 -1.15568 0.258459
O 0.861683 0.708587 -0.887014
H 3.39018 0.457085 -0.0538138
H 2.48441 1.56809 0.95792
H 2.6833 -0.17522 1.57113
7
Atoms. Timestep: 545000
C 2.61928 0.448893 0.624294
N 1.30991 -0.0370097 -0.0561529
O 0.872911 -1.13334 0.284267
O 0.838846 0.723321 -0.85113
H 3.4191 -0.190819 0.308724
H 2.64783 1.4814 0.336899
H 2.50212 0.381639 1.69158
7
Atoms. Timestep: 550000
C 2.61541 0.399263 0.58709
N 1.35541 -0.021782 -0.033718
O 0.807467 -1.07618 0.375116
O 0.855035 0.695582 -0.917413
H 3.41147 0.242254 -0.159491
H 2.54293 1.45452 0.708601
H 2.80992 -0.111857 1.52973
7
Atoms. Timestep: 555000
C 2.64098 0.372334 0.547208
N 1.31803 -0.038512 -0.0507776
O 0.820602 -1.02432 0.420481
O 0.854122 0.68996 -0.915299
H 3.47425 -0.110794 -0.0863723
H 2.70071 1.46932 0.510364
H 2.61039 0.04614 1.61374
7
Atoms. Timestep: 560000
C 2.64674 0.353327 0.504364
N 1.33341 -0.0294608 -0.0408325
O 0.815278 -1.00511 0.471943
O 0.836099 0.693541 -0.941728
H 3.39593 -0.424301 0.201136
H 2.90399 1.40963 0.24118
H 2.57335 0.158381 1.57045
7
Atoms. Timestep: 565000
C 2.67708 0.315935 0.487753
N 1.31739 -0.0347458 -0.057225
O 0.77459 -0.921559 0.559094
O 0.873099 0.636809 -0.989802
H 3.36799 0.0453458 -0.275339
H 2.69369 1.38285 0.671814
H 2.73135 -0.191103 1.42197
7
Atoms. Timestep: 570000
C 2.66723 0.293817 0.441938
N 1.34473 -0.0177876 -0.0456292
O 0.757379 -0.918738 0.57123
O 0.86663 0.639728 -0.967357
H 3.35033 -0.463811 0.160078
H 2.89311 1.24232 -0.0431822
H 2.6627 0.395322 1.53751
7
Atoms. Timestep: 575000
C 2.6978 0.302536 0.398668
N 1.32245 -0.0342366 -0.0536381
O 0.713924 -0.854158 0.647484
O 0.908794 0.587251 -0.996439
H 3.34863 -0.35248 -0.173379
H 2.79889 1.39462 0.191305
H 2.72455 0.064376 1.51481
7
Atoms. Timestep: 580000
C 2.69025 0.280801 0.355979
N 1.31704 -0.0365357 -0.0309368
O 0.683472 -0.803613 0.697975
O 0.936613 0.55162 -1.02648
H 3.42031 -0.217659 -0.30146
H 2.90767 1.35673 0.247723
H 2.75104 0.0217127 1.45501
7
Atoms. Timestep: 585000
C 2.71149 0.278125 0.331006
N 1.32934 -0.0564594 -0.0192625
O 0.674947 -0.785512 0.710397
O 0.924046 0.563569 -1.02293
H 3.27202 -0.647259 0.187037
H 2.99169 1.12062 -0.289219
H 2.72599 0.51938 1.38538
7
Atoms. Timestep: 590000
C 2.72554 0.246759 0.310861
N 1.31204 -0.0476638 -0.0132508
O 0.653417 -0.682975 0.770204
O 0.944558 0.474773 -1.059
H 3.36839 -0.271384 -0.400976
H 2.81344 1.29565 0.152997
H 2.89711 0.00191284 1.31093
7
Atoms. Timestep: 595000
C 2.73928 0.232444 0.302325
N 1.33667 -0.0421126 -0.0351083
O 0.656502 -0.670985 0.798011
O 0.908497 0.478636 -1.0609
H 3.31796 -0.63111 -0.0379609
H 3.00894 1.11338 -0.282603
H 2.76918 0.385767 1.37802
7
Atoms. Timestep: 600000
C 2.7529 0.208842 0.27599
N 1.31515 -0.0304574 -0.0516397
O 0.675419 -0.6249 0.830194
O 0.889728 0.444665 -1.07318
H 3.31146 -0.720592 0.110894
H 3.10322 1.13302 -0.205707
H 2.81592 0.382576 1.37996
7
Atoms. Timestep: 605000
C 2.77395 0.1858 0.278378
N 1.33463 -0.0318171 -0.0456187
O 0.660617 -0.549543 0.870567
O 0.869706 0.390448 -1.10755
H 3.37976 -0.468468 -0.323889
H 3.0139 1.21323 0.0182831
H 2.86793 0.0082473 1.38336
7
Atoms. Timestep: 610000
C 2.78745 0.174796 0.279981
N 1.31185 -0.0374964 -0.0346539
O 0.687196 -0.554121 0.84478
O 0.849395 0.413733 -1.08834
H 3.2486 -0.782014 0.23431
H 3.16158 0.842783 -0.470438
H 2.90771 0.605418 1.24675
7
Atoms. Timestep: 615000
C 2.80724 0.164175 0.245629
N 1.32627 -0.0321783 -0.0203436
O 0.658552 -0.490768 0.88416
O 0.847403 0.354583 -1.10953
H 3.38573 -0.657817 -0.2053
H 3.05244 1.16057 -0.160282
H 2.92972 0.149398 1.29789
7
Atoms. Timestep: 620000
C 2.82045 0.178616 0.217639
N 1.31223 -0.031334 -0.0228689
O 0.645949 -0.489907 0.909181
O 0.86088 0.343599 -1.09859
H 3.31507 -0.719755 -0.253248
H 3.19408 1.0675 -0.323211
H 2.88247 0.281224 1.30679
7
Atoms. Timestep: 625000
C 2.81443 0.166385 0.183974
N 1.32526 -0.0262441 -0.0219604
O 0.635586 -0.507042 0.910224
O 0.855013 0.362902 -1.07922
H 3.35213 -0.800973 0.198154
H 3.19619 0.84487 -0.57131
H 2.99158 0.625666 1.16802
7
Atoms. Timestep: 630000
C 2.83635 0.175219 0.171248
N 1.30313 -0.0247467 -0.0128291
O 0.64361 -0.441145 0.925363
O 0.862825 0.288821 -1.0801
H 3.28695 -0.545173 -0.456191
H 2.94943 1.19307 -0.177243
H 3.09862 0.0254596 1.22674
7
Atoms. Timestep: 635000
C 2.81342 0.181638 0.16418
N 1.31652 -0.0346604 -0.00467654
O 0.655394 -0.491062 0.929815
O 0.840925 0.335239 -1.07987
H 3.34162 -0.713188 -0.00514624
H 3.17924 0.84179 -0.635322
H 3.06171 0.661598 1.13044
7
Atoms. Timestep: 640000
C 2.8313 0.190474 0.143405
N 1.31528 -0.0256121 0.00477082
O 0.672115 -0.47471 0.937542
O 0.826361 0.308565 -1.092
H 3.31742 -0.759884 -0.0910373
H 3.07247 1.11262 -0.478997
H 2.96267 0.3702 1.24598
7
Atoms. Timestep: 645000
C 2.80304 0.200568 0.162112
N 1.3149 -0.0246451 -0.0126143
O 0.702924 -0.458443 0.944105
O 0.805937 0.282392 -1.09395
H 3.35793 -0.6097 -0.355653
H 3.11606 1.19474 -0.262917
H 3.05573 0.161365 1.2401
7
Atoms. Timestep: 650000
C 2.81686 0.203355 0.181423
N 1.31664 -0.00426152 -0.0259776
O 0.741813 -0.517632 0.925627
O 0.771706 0.323556 -1.07353
H 3.27987 -0.789581 0.121259
H 3.07841 0.775986 -0.673675
H 2.90884 0.729511 1.09874
7
Atoms. Timestep: 655000
C 2.78053 0.224777 0.158194
N 1.31811 -0.00722572 -0.0316506
O 0.74816 -0.490943 0.9607
O 0.777843 0.280496 -1.09228
H 3.35287 -0.553029 -0.373869
H 3.02725 1.18412 -0.148439
H 3.10139 0.130574 1.1653
7
Atoms. Timestep: 660000
C 2.78822 0.247871 0.131451
N 1.31175 -0.00401721 -0.0170896
O 0.769986 -0.546221 0.953361